
Running Job 1 of 3 PAA_Yue.in
qchem PAA_Yue.in_200596.0 /tmp/qchem200596/ 0
/software/QChem/5.3/exe/qcprog.exe_s PAA_Yue.in_200596.0 /tmp/qchem200596/
                  Welcome to Q-Chem
     A Quantum Leap Into The Future Of Chemistry


 Q-Chem 5.3, Q-Chem, Inc., Pleasanton, CA (2020)

 License issued to: SRG Mark Ratner, Northwestern University

 Yihan Shao,  Zhengting Gan,  E. Epifanovsky,  A. T. B. Gilbert,  M. Wormit,  
 J. Kussmann,  A. W. Lange,  A. Behn,  Jia Deng,  Xintian Feng,  D. Ghosh,  
 M. Goldey,  P. R. Horn,  L. D. Jacobson,  I. Kaliman,  T. Kus,  A. Landau,  
 Jie Liu,  E. I. Proynov,  R. M. Richard,  R. P. Steele,  E. J. Sundstrom,  
 H. L. Woodcock III,  P. M. Zimmerman,  D. Zuev,  B. Alam,  B. Albrecht,  
 A. Aldossary,  E. Alguire,  S. A. Baeppler,  D. Barton,  Z. Benda,  
 Y. A. Bernard,  E. J. Berquist,  K. B. Bravaya,  H. Burton,  K. Carter-Fenk,  
 D. Casanova,  Chun-Min Chang,  Yunqing Chen,  A. Chien,  K. D. Closser,  
 M. P. Coons,  S. Coriani,  S. Dasgupta,  A. L. Dempwolff,  M. Diedenhofen,  
 Hainam Do,  R. G. Edgar,  Po-Tung Fang,  S. Faraji,  S. Fatehi,  
 Qingguo Feng,  J. Fosso-Tande,  J. Gayvert,  Qinghui Ge,  A. Ghysels,  
 G. Gidofalvi,  J. Gomes,  J. Gonthier,  S. Gulania,  A. Gunina,  D. Hait,  
 M. W. D. Hanson-Heine,  S. Hammes-Schiffer,  P. H. P. Harbach,  
 A. W. Hauser,  M. F. Herbst,  J. E. Herr,  E. G. Hohenstein,  Z. C. Holden,  
 S. Houck,  Kerwin Hui,  B. C. Huynh,  M. Ivanov,  T.-C. Jagau,  Hyunjun Ji,  
 B. Kaduk,  K. Khistyaev,  Jaehoon Kim,  P. Klunzinger,  K. Koh,  
 D. Kosenkov,  L. Koulias,  T. Kowalczyk,  C. M. Krauter,  A. Kunitsa,  
 Ka Un Lao,  A. Laurent,  K. V. Lawler,  Joonho Lee,  D. Lefrancois,  
 S. Lehtola,  D. S. Levine,  Yi-Pei Li,  You-Sheng Lin,  Fenglai Liu,  
 Kuan-Yu Liu,  E. Livshits,  M. Loipersberger,  A. Luenser,  P. Manohar,  
 E. Mansoor,  S. F. Manzer,  Shan-Ping Mao,  Yuezhi Mao,  N. Mardirossian,  
 A. V. Marenich,  T. Markovich,  L. A. Martinez-Martinez,  S. A. Maurer,  
 N. J. Mayhall,  S. C. McKenzie,  J.-M. Mewes,  P. Morgante,  A. F. Morrison,  
 J. W. Mullinax,  K. Nanda,  T. S. Nguyen-Beck,  R. Olivares-Amaya,  
 K. J. Oosterbaan,  J. A. Parkhill,  S. K. Paul,  F. Pavosevic,  Zheng Pei,  
 T. M. Perrine,  F. Plasser,  P. Pokhilko,  S. Prager,  A. Prociuk,  
 E. Ramos,  B. Rana,  D. R. Rehn,  F. Rob,  E. Rossomme,  M. Scheurer,  
 M. Schneider,  N. Sergueev,  S. M. Sharada,  S. Sharma,  W. Skomorowski,  
 D. W. Small,  T. Stauch,  C. J. Stein,  T. Stein,  Yu-Chuan Su,  
 S. P. Veccham,  Zhen Tao,  A. J. W. Thom,  A. Tkatchenko,  T. Tsuchimochi,  
 N. M. Tubman,  L. Vogt,  M. L. Vidal,  O. Vydrov,  M. A. Watson,  J. Wenzel,  
 M. de Wergifosse,  T. A. Wesolowski,  A. White,  J. Witte,  A. Yamada,  
 Jun Yang,  K. Yao,  S. Yeganeh,  S. R. Yost,  Zhi-Qiang You,  A. Zech,  
 Igor Ying Zhang,  Xing Zhang,  Yan Zhao,  Ying Zhu,  B. R. Brooks,  
 G. K. L. Chan,  C. J. Cramer,  M. S. Gordon,  W. J. Hehre,  A. Klamt,  
 M. W. Schmidt,  C. D. Sherrill,  D. G. Truhlar,  A. Aspuru-Guzik,  R. Baer,  
 A. T. Bell,  N. A. Besley,  Jeng-Da Chai,  A. E. DePrince, III,  
 R. A. DiStasio Jr.,  A. Dreuw,  B. D. Dunietz,  T. R. Furlani,  
 Chao-Ping Hsu,  Yousung Jung,  Jing Kong,  D. S. Lambrecht,  WanZhen Liang,  
 C. Ochsenfeld,  V. A. Rassolov,  L. V. Slipchenko,  J. E. Subotnik,  
 T. Van Voorhis,  J. M. Herbert,  A. I. Krylov,  P. M. W. Gill,  M. Head-Gordon

 Contributors to earlier versions of Q-Chem not listed above: 
 R. D. Adamson,  B. Austin,  J. Baker,  G. J. O. Beran,  K. Brandhorst,  
 S. T. Brown,  E. F. C. Byrd,  A. K. Chakraborty,  C.-L. Cheng,  
 Siu Hung Chien,  D. M. Chipman,  D. L. Crittenden,  H. Dachsel,  
 R. J. Doerksen,  A. D. Dutoi,  L. Fusti-Molnar,  W. A. Goddard III,  
 A. Golubeva-Zadorozhnaya,  S. R. Gwaltney,  G. Hawkins,  A. Heyden,  
 S. Hirata,  G. Kedziora,  F. J. Keil,  C. Kelley,  Jihan Kim,  R. A. King,  
 R. Z. Khaliullin,  P. P. Korambath,  W. Kurlancheek,  A. M. Lee,  M. S. Lee,  
 S. V. Levchenko,  Ching Yeh Lin,  D. Liotard,  R. C. Lochan,  I. Lotan,  
 P. E. Maslen,  N. Nair,  D. P. O'Neill,  D. Neuhauser,  E. Neuscamman,  
 C. M. Oana,  R. Olson,  B. Peters,  R. Peverati,  P. A. Pieniazek,  
 Y. M. Rhee,  J. Ritchie,  M. A. Rohrdanz,  E. Rosta,  N. J. Russ,  
 H. F. Schaefer III,  N. E. Schultz,  N. Shenvi,  A. C. Simmonett,  A. Sodt,  
 D. Stuck,  K. S. Thanthiriwatte,  V. Vanovschi,  Tao Wang,  A. Warshel,  
 C. F. Williams,  Q. Wu,  X. Xu,  W. Zhang

 Please cite Q-Chem as follows:
 Y. Shao et al., Mol. Phys. 113, 184-215 (2015)
 DOI: 10.1080/00268976.2014.952696

 Q-Chem 5.3.1 for Intel X86 EM64T Linux

 Parts of Q-Chem use Armadillo 9.800.1 (Horizon Scraper).
 http://arma.sourceforge.net/

 Q-Chem begins on Wed Jun 22 12:28:04 2022  

Host: 
0

     Scratch files written to /tmp/qchem200596//
 Aug2920 |scratch|qcdevops|jenkins|workspace|build_RNUM 4082   
Processing $rem in /software/QChem/5.3/config/preferences:
Processing $rem in /home/ckw3571/.qchemrc:

Checking the input file for inconsistencies... 	...done.

--------------------------------------------------------------
User input:
--------------------------------------------------------------
$molecule
0 1
C    1.1186370   -1.5734340   -0.8182940
C    1.0066290   -2.9072700   -1.3559520
C    0.0065760   -1.0000620   -0.1575810
C   -1.2031530   -1.7537250   -0.0331480
C   -1.2852510   -3.0608150   -0.5706040
C   -0.1327680   -3.6126510   -1.2399440
C   -2.3213600   -1.1974890    0.6284190
C   -3.4936150   -1.9457360    0.7416060
C   -3.5663560   -3.2241750    0.2125160
C   -2.4729580   -3.7778290   -0.4378420
C    0.0903990    0.3084160    0.3777810
C   -1.0697370    0.8425470    1.0516250
C   -2.2077350    0.1314950    1.1686650
C    2.2893020   -0.8317790   -0.9263690
C    2.3665610    0.4482400   -0.4017370
C    1.2862380    1.0346690    0.2443970
C    1.3789800    2.4320530    0.8286900
C    2.6387200    3.1574360    0.4400750
O    2.5391290    3.7503200   -0.7620720
O    3.6448710    3.2116250    1.1050410
H    1.8692370   -3.3305250   -1.8597150
H   -0.2059210   -4.6150470   -1.6484480
H   -4.3497940   -1.5156030    1.2503890
H   -4.4821850   -3.7960600    0.3078490
H   -2.5347040   -4.7796340   -0.8497120
H   -1.0243730    1.8371120    1.4779640
H   -3.0660220    0.5543120    1.6801730
H    3.1499140   -1.2623290   -1.4267060
H    3.2998520    0.9920220   -0.5000420
H    1.3594970    2.3855170    1.9183370
H    0.5301120    3.0310350    0.4960340
H    3.3909790    4.1772520   -0.9413050
$end

$rem
BASIS  =  6-31+G*
JOB_TYPE  =  Optimization
METHOD  =  B3LYP
SYM_IGNORE = True
$end




--------------------------------------------------------------
 ----------------------------------------------------------------
             Standard Nuclear Orientation (Angstroms)
    I     Atom           X                Y                Z
 ----------------------------------------------------------------
    1      C       1.1186370000    -1.5734340000    -0.8182940000
    2      C       1.0066290000    -2.9072700000    -1.3559520000
    3      C       0.0065760000    -1.0000620000    -0.1575810000
    4      C      -1.2031530000    -1.7537250000    -0.0331480000
    5      C      -1.2852510000    -3.0608150000    -0.5706040000
    6      C      -0.1327680000    -3.6126510000    -1.2399440000
    7      C      -2.3213600000    -1.1974890000     0.6284190000
    8      C      -3.4936150000    -1.9457360000     0.7416060000
    9      C      -3.5663560000    -3.2241750000     0.2125160000
   10      C      -2.4729580000    -3.7778290000    -0.4378420000
   11      C       0.0903990000     0.3084160000     0.3777810000
   12      C      -1.0697370000     0.8425470000     1.0516250000
   13      C      -2.2077350000     0.1314950000     1.1686650000
   14      C       2.2893020000    -0.8317790000    -0.9263690000
   15      C       2.3665610000     0.4482400000    -0.4017370000
   16      C       1.2862380000     1.0346690000     0.2443970000
   17      C       1.3789800000     2.4320530000     0.8286900000
   18      C       2.6387200000     3.1574360000     0.4400750000
   19      O       2.5391290000     3.7503200000    -0.7620720000
   20      O       3.6448710000     3.2116250000     1.1050410000
   21      H       1.8692370000    -3.3305250000    -1.8597150000
   22      H      -0.2059210000    -4.6150470000    -1.6484480000
   23      H      -4.3497940000    -1.5156030000     1.2503890000
   24      H      -4.4821850000    -3.7960600000     0.3078490000
   25      H      -2.5347040000    -4.7796340000    -0.8497120000
   26      H      -1.0243730000     1.8371120000     1.4779640000
   27      H      -3.0660220000     0.5543120000     1.6801730000
   28      H       3.1499140000    -1.2623290000    -1.4267060000
   29      H       3.2998520000     0.9920220000    -0.5000420000
   30      H       1.3594970000     2.3855170000     1.9183370000
   31      H       0.5301120000     3.0310350000     0.4960340000
   32      H       3.3909790000     4.1772520000    -0.9413050000
 ----------------------------------------------------------------
 Nuclear Repulsion Energy =        1401.44506169 hartrees
 There are       68 alpha and       68 beta electrons
 Requested basis set is 6-31+G(d)
 There are 124 shells and 404 basis functions

 Total QAlloc Memory Limit   8000 MB
 Mega-Array Size       188 MB
 MEM_STATIC part       192 MB
 A cutoff of  1.0D-11 yielded   5932 shell pairs
 There are     67353 function pairs
 Smallest overlap matrix eigenvalue = 8.15E-09

 Q-Chem warning in module stvman/mkSTV.C, line 318:

 Overlap eigenvalue is smaller than square root of threshold
 Use THRESH >= 12 to get rid of this warning

 Linear dependence detected in AO basis
 Tighter screening thresholds may be required for diffuse basis sets
 Use S2THRESH > 14 and THRESH = 14 in case of SCF convergence issues
 Number of orthogonalized atomic orbitals = 394
 Maximum deviation from orthogonality = 2.451E-10

 Scale SEOQF with 1.000000e-01/1.000000e-01/1.000000e-01

 Standard Electronic Orientation quadrupole field applied
 Nucleus-field energy     =     0.0000000722 hartrees
 Guess from superposition of atomic densities
 Warning:  Energy on first SCF cycle will be non-variational
 SAD guess density has 136.000000 electrons

 -----------------------------------------------------------------------
  General SCF calculation program by
  Eric Jon Sundstrom, Paul Horn, Yuezhi Mao, Dmitri Zuev, Alec White,
  David Stuck, Shaama M.S., Shane Yost, Joonho Lee, David Small,
  Daniel Levine, Susi Lehtola, Hugh Burton, Evgeny Epifanovsky,
  Bang C. Huynh
 -----------------------------------------------------------------------
 Exchange:     0.2000 Hartree-Fock + 0.0800 Slater + 0.7200 B88
 Correlation:  0.1900 VWN1RPA + 0.8100 LYP
 Using SG-1 standard quadrature grid
 A restricted SCF calculation will be
 performed using DIIS
 SCF converges when DIIS error is below 1.0e-08
 ---------------------------------------
  Cycle       Energy         DIIS error
 ---------------------------------------
    1    -848.8692126490      3.81e-02  
    2    -843.3968064958      3.84e-03  
    3    -843.1841752030      5.50e-03  
    4    -843.6397108954      1.54e-03  
    5    -843.6758143015      3.56e-04  
    6    -843.6773216050      1.62e-04  
    7    -843.6777355539      3.14e-05  
    8    -843.6777468913      2.08e-05  
    9    -843.6777564763      2.49e-06  
   10    -843.6777565866      9.72e-07  
   11    -843.6777566022      3.30e-07  
   12    -843.6777566042      1.26e-07  
   13    -843.6777566046      4.77e-08  
   14    -843.6777566046      1.31e-08  
   15    -843.6777566046      4.48e-09  Convergence criterion met
 ---------------------------------------
 SCF time:   CPU 334.10s  wall 335.00s 
 SCF   energy in the final basis set =     -843.6777566046
 Total energy in the final basis set =     -843.6777566046
 
 --------------------------------------------------------------
 
                    Orbital Energies (a.u.)
 --------------------------------------------------------------
 
 Alpha MOs
 -- Occupied --
-19.2183 -19.1599 -10.3379 -10.2174 -10.2170 -10.2104 -10.2084 -10.2081
-10.2080 -10.2070 -10.2069 -10.2038 -10.2028 -10.2014 -10.2010 -10.2005
-10.2005 -10.2002 -10.1999 -10.1995  -1.1308  -1.0368  -0.9076  -0.8700
 -0.8448  -0.8199  -0.7948  -0.7662  -0.7571  -0.7402  -0.7151  -0.6493
 -0.6393  -0.6372  -0.6258  -0.6096  -0.5569  -0.5353  -0.5280  -0.5241
 -0.5051  -0.5002  -0.4892  -0.4852  -0.4562  -0.4527  -0.4460  -0.4429
 -0.4399  -0.4229  -0.4186  -0.4100  -0.4084  -0.4067  -0.3976  -0.3768
 -0.3720  -0.3706  -0.3517  -0.3405  -0.3395  -0.3288  -0.3075  -0.2936
 -0.2819  -0.2674  -0.2425  -0.2101
 -- Virtual --
 -0.0679  -0.0372  -0.0193  -0.0142  -0.0052  -0.0001   0.0043   0.0097
  0.0171   0.0230   0.0335   0.0379   0.0390   0.0426   0.0465   0.0565
  0.0596   0.0621   0.0639   0.0678   0.0719   0.0779   0.0892   0.0899
  0.0943   0.0999   0.1039   0.1116   0.1138   0.1195   0.1265   0.1322
  0.1338   0.1384   0.1388   0.1454   0.1484   0.1537   0.1552   0.1631
  0.1686   0.1718   0.1763   0.1773   0.1791   0.1819   0.1855   0.1887
  0.1926   0.1938   0.2002   0.2051   0.2059   0.2108   0.2154   0.2178
  0.2255   0.2279   0.2310   0.2344   0.2370   0.2448   0.2465   0.2491
  0.2519   0.2539   0.2613   0.2616   0.2651   0.2685   0.2718   0.2758
  0.2785   0.2836   0.2853   0.2935   0.2960   0.2973   0.3006   0.3017
  0.3053   0.3111   0.3162   0.3168   0.3183   0.3226   0.3283   0.3352
  0.3425   0.3460   0.3506   0.3568   0.3633   0.3747   0.3908   0.3965
  0.4047   0.4080   0.4203   0.4235   0.4320   0.4410   0.4454   0.4599
  0.4754   0.4906   0.5039   0.5164   0.5368   0.5503   0.5784   0.6027
  0.6396   0.6505   0.6538   0.6713   0.6781   0.6807   0.6878   0.6971
  0.7043   0.7088   0.7146   0.7222   0.7264   0.7336   0.7368   0.7387
  0.7515   0.7552   0.7579   0.7609   0.7647   0.7714   0.7786   0.7827
  0.7860   0.7901   0.7939   0.7994   0.8002   0.8066   0.8087   0.8340
  0.8558   0.8590   0.8754   0.8882   0.8964   0.8984   0.9116   0.9180
  0.9281   0.9482   0.9538   0.9637   0.9665   0.9744   0.9948   1.0183
  1.0269   1.0515   1.0650   1.0706   1.0904   1.1114   1.1252   1.1338
  1.1605   1.1663   1.1682   1.1695   1.1753   1.1816   1.1916   1.1980
  1.2121   1.2143   1.2230   1.2272   1.2438   1.2470   1.2662   1.2775
  1.2805   1.2900   1.3020   1.3052   1.3172   1.3286   1.3377   1.3409
  1.3573   1.3768   1.3824   1.3927   1.4126   1.4185   1.4263   1.4592
  1.4639   1.4656   1.4694   1.4771   1.4832   1.4876   1.4889   1.5341
  1.5504   1.5599   1.5639   1.5802   1.6123   1.6439   1.6763   1.7148
  1.7318   1.7460   1.7654   1.7685   1.7791   1.8045   1.8115   1.8146
  1.8312   1.8407   1.8548   1.8593   1.8802   1.8971   1.8986   1.9165
  1.9278   1.9426   1.9510   1.9547   1.9583   1.9627   1.9717   1.9838
  1.9982   2.0081   2.0430   2.0514   2.0535   2.0757   2.1025   2.1286
  2.1460   2.1656   2.1766   2.2053   2.2106   2.2370   2.2416   2.2567
  2.2753   2.2861   2.2987   2.3080   2.3162   2.3363   2.3424   2.3743
  2.3788   2.3858   2.3922   2.4144   2.4227   2.4418   2.4652   2.4684
  2.5084   2.5181   2.5402   2.5731   2.6136   2.6496   2.6639   2.6700
  2.6817   2.7059   2.7117   2.7421   2.7552   2.7694   2.7893   2.8095
  2.8192   2.8473   2.8704   2.8840   2.9033   2.9218   2.9430   2.9655
  2.9952   3.0672   3.0879   3.0984   3.1188   3.1458   3.2469   3.3718
  3.5074   3.5753   4.2141   4.2291   4.2475   4.2527   4.2782   4.3209
  4.3425   4.3467   4.3497   4.3756   4.3958   4.4199   4.4336   4.4544
  4.4705   4.4938   4.5854   4.6289   4.7192   4.9418
 --------------------------------------------------------------
 
          Ground-State Mulliken Net Atomic Charges

     Atom                 Charge (a.u.)
  ----------------------------------------
      1 C                     0.786575
      2 C                    -0.213846
      3 C                    -0.318631
      4 C                    -0.080682
      5 C                     0.362759
      6 C                    -0.200622
      7 C                     0.275989
      8 C                    -0.241298
      9 C                    -0.497138
     10 C                    -0.251801
     11 C                     0.447704
     12 C                    -0.456195
     13 C                    -0.410862
     14 C                    -0.605237
     15 C                    -1.086956
     16 C                     1.257489
     17 C                    -0.459068
     18 C                    -0.045873
     19 O                    -0.519776
     20 O                    -0.388926
     21 H                     0.183302
     22 H                     0.183928
     23 H                     0.182288
     24 H                     0.181402
     25 H                     0.183567
     26 H                     0.181660
     27 H                     0.182872
     28 H                     0.186857
     29 H                     0.190694
     30 H                     0.259500
     31 H                     0.237445
     32 H                     0.492881
  ----------------------------------------
  Sum of atomic charges =     0.000000

 -----------------------------------------------------------------
                    Cartesian Multipole Moments
 -----------------------------------------------------------------
    Charge (ESU x 10^10)
                -0.0000
    Dipole Moment (Debye)
         X      -1.4673      Y      -0.3214      Z      -1.0658
       Tot       1.8417
    Quadrupole Moments (Debye-Ang)
        XX    -112.0254     XY      -0.1319     YY    -104.0050
        XZ     -13.0797     YZ       1.4704     ZZ    -118.4898
    Octopole Moments (Debye-Ang^2)
       XXX     -54.8006    XXY      26.4387    XYY      -9.4379
       YYY     147.9458    XXZ     -32.1459    XYZ     -25.9523
       YYZ     -37.3368    XZZ      -4.9241    YZZ      54.2991
       ZZZ      -1.2844
    Hexadecapole Moments (Debye-Ang^3)
      XXXX   -3309.7127   XXXY   -1105.6306   XXYY   -1141.6375
      XYYY    -958.0715   YYYY   -3770.2891   XXXZ     -96.0128
      XXYZ    -229.6331   XYYZ     -60.9007   YYYZ    -276.6858
      XXZZ    -681.3128   XYZZ    -417.6903   YYZZ    -790.5316
      XZZZ     143.4420   YZZZ    -316.6209   ZZZZ    -630.9685
 -----------------------------------------------------------------
 Calculating analytic gradient of the SCF energy
 Gradient of SCF Energy
            1           2           3           4           5           6
    1  -0.0005163  -0.0116341   0.0068208  -0.0070634  -0.0074546   0.0131405
    2   0.0099356  -0.0092405   0.0047705  -0.0043157   0.0056609   0.0062309
    3   0.0044025   0.0004237  -0.0004247   0.0007622   0.0053062  -0.0021542
            7           8           9          10          11          12
    1   0.0015746   0.0057147   0.0059162   0.0018148   0.0065985  -0.0125511
    2  -0.0092202  -0.0018931   0.0039794   0.0061284  -0.0057893  -0.0063365
    3  -0.0045711  -0.0030247  -0.0004632   0.0020124  -0.0050822   0.0019481
           13          14          15          16          17          18
    1   0.0115198  -0.0059934  -0.0067334  -0.0005182   0.0002743   0.0043378
    2   0.0091713   0.0009645  -0.0024564  -0.0043101  -0.0001702   0.0023009
    3  -0.0004589   0.0026954   0.0012595  -0.0013796   0.0012647  -0.0036866
           19          20          21          22          23          24
    1   0.0063125  -0.0103401  -0.0018438   0.0004369   0.0017300   0.0020011
    2  -0.0025024  -0.0010023   0.0005869   0.0019635  -0.0007767   0.0012168
    3   0.0083790  -0.0066742   0.0009270   0.0006692  -0.0009729  -0.0001542
           25          26          27          28          29          30
    1   0.0002844  -0.0001678   0.0018486  -0.0017937  -0.0010237   0.0000832
    2   0.0019965  -0.0014217  -0.0006143   0.0007804  -0.0003065  -0.0005124
    3   0.0007288  -0.0005483  -0.0009638   0.0009618  -0.0000756  -0.0033902
           31          32
    1   0.0025603  -0.0053354
    2  -0.0017611  -0.0030575
    3   0.0005173   0.0017663
 Max gradient component =       1.314E-02
 RMS gradient           =       4.684E-03
 Gradient time:  CPU 113.79 s  wall 115.39 s
 Geometry Optimization Parameters
   NAtoms,    NIC,     NZ,  NCons,   NDum,   NFix, NCnnct, MaxDiis
       32     247       0       0       0       0       0       0


** GEOMETRY OPTIMIZATION IN DELOCALIZED INTERNAL COORDINATES **
   Searching for a Minimum

   Optimization Cycle:   1

                       Coordinates (Angstroms)
     ATOM                X               Y               Z
      1  C         1.1186370000   -1.5734340000   -0.8182940000
      2  C         1.0066290000   -2.9072700000   -1.3559520000
      3  C         0.0065760000   -1.0000620000   -0.1575810000
      4  C        -1.2031530000   -1.7537250000   -0.0331480000
      5  C        -1.2852510000   -3.0608150000   -0.5706040000
      6  C        -0.1327680000   -3.6126510000   -1.2399440000
      7  C        -2.3213600000   -1.1974890000    0.6284190000
      8  C        -3.4936150000   -1.9457360000    0.7416060000
      9  C        -3.5663560000   -3.2241750000    0.2125160000
     10  C        -2.4729580000   -3.7778290000   -0.4378420000
     11  C         0.0903990000    0.3084160000    0.3777810000
     12  C        -1.0697370000    0.8425470000    1.0516250000
     13  C        -2.2077350000    0.1314950000    1.1686650000
     14  C         2.2893020000   -0.8317790000   -0.9263690000
     15  C         2.3665610000    0.4482400000   -0.4017370000
     16  C         1.2862380000    1.0346690000    0.2443970000
     17  C         1.3789800000    2.4320530000    0.8286900000
     18  C         2.6387200000    3.1574360000    0.4400750000
     19  O         2.5391290000    3.7503200000   -0.7620720000
     20  O         3.6448710000    3.2116250000    1.1050410000
     21  H         1.8692370000   -3.3305250000   -1.8597150000
     22  H        -0.2059210000   -4.6150470000   -1.6484480000
     23  H        -4.3497940000   -1.5156030000    1.2503890000
     24  H        -4.4821850000   -3.7960600000    0.3078490000
     25  H        -2.5347040000   -4.7796340000   -0.8497120000
     26  H        -1.0243730000    1.8371120000    1.4779640000
     27  H        -3.0660220000    0.5543120000    1.6801730000
     28  H         3.1499140000   -1.2623290000   -1.4267060000
     29  H         3.2998520000    0.9920220000   -0.5000420000
     30  H         1.3594970000    2.3855170000    1.9183370000
     31  H         0.5301120000    3.0310350000    0.4960340000
     32  H         3.3909790000    4.1772520000   -0.9413050000
   Point Group: c1    Number of degrees of freedom:    90


   Energy is   -843.677756605


 Attempting to generate delocalized internal coordinates
 Initial Hessian constructed with Jon Baker's OPTIMIZE code

 90 Hessian modes will be used to form the next step
  Hessian Eigenvalues:
     0.006869    0.008556    0.011997    0.016353    0.017949    0.019117
     0.019462    0.019722    0.019908    0.020131    0.020774    0.021091
     0.021825    0.022542    0.022696    0.022792    0.022839    0.023041
     0.023589    0.023677    0.023793    0.023927    0.023973    0.024132
     0.024200    0.024969    0.025336    0.049860    0.065289    0.101023
     0.133371    0.159998    0.159998    0.160000    0.160000    0.160000
     0.160000    0.160000    0.160000    0.160000    0.160000    0.220585
     0.221262    0.223793    0.225485    0.226911    0.235274    0.244172
     0.245578    0.246630    0.249623    0.249955    0.249994    0.249997
     0.250000    0.306126    0.318883    0.329668    0.347113    0.347187
     0.354053    0.354057    0.354078    0.354084    0.354137    0.354422
     0.354439    0.355248    0.355336    0.356291    0.371102    0.387362
     0.394523    0.399485    0.404809    0.406491    0.412408    0.435298
     0.442246    0.462469    0.463764    0.464199    0.465545    0.477359
     0.477451    0.534672    0.538327    0.543897    0.562974    1.012622

 Minimum search - taking simple RFO step
 Searching for Lamda that Minimizes Along All modes
 Value Taken    Lamda =  -0.00492213
 Step Taken.  Stepsize is  0.116755

                             Maximum     Tolerance    Cnvgd?
         Gradient           0.018388      0.000300      NO
         Displacement       0.060252      0.001200      NO
         Energy change     *********      0.000001      NO


 New Cartesian Coordinates Obtained by Inverse Iteration

 Displacement from previous Coordinates is:  0.405913
 ----------------------------------------------------------------
             Standard Nuclear Orientation (Angstroms)
    I     Atom           X                Y                Z
 ----------------------------------------------------------------
    1      C       1.1268521608    -1.5953057731    -0.8251501289
    2      C       1.0092523454    -2.9293742195    -1.3614657922
    3      C       0.0061864688    -1.0124793780    -0.1603930926
    4      C      -1.2095929149    -1.7654114559    -0.0350231948
    5      C      -1.2977893146    -3.0849837731    -0.5760308195
    6      C      -0.1455779348    -3.6393596672    -1.2442782310
    7      C      -2.3376115938    -1.2024897029     0.6322001412
    8      C      -3.5207443867    -1.9546729484     0.7460150710
    9      C      -3.5983810275    -3.2420267346     0.2134519661
   10      C      -2.4986437345    -3.8026770387    -0.4406775301
   11      C       0.0968449604     0.3101912396     0.3772523878
   12      C      -1.0655515548     0.8437678426     1.0505404740
   13      C      -2.2180764944     0.1266652878     1.1709309628
   14      C       2.3091552177    -0.8506306788    -0.9316403423
   15      C       2.3921442312     0.4385147110    -0.4061263911
   16      C       1.3062472775     1.0397775591     0.2402247422
   17      C       1.4048188997     2.4492750382     0.8255912934
   18      C       2.6630447198     3.2020292057     0.4448510633
   19      O       2.5425784805     3.8288239422    -0.7503113418
   20      O       3.6711664577     3.2736858539     1.1168165235
   21      H       1.8742229041    -3.3559989385    -1.8650969817
   22      H      -0.2229627012    -4.6449782635    -1.6522967069
   23      H      -4.3787625149    -1.5213896682     1.2557198289
   24      H      -4.5190051999    -3.8127774003     0.3086458320
   25      H      -2.5651269756    -4.8077210689    -0.8522344605
   26      H      -1.0190212260     1.8408248872     1.4766236605
   27      H      -3.0782118400     0.5524202895     1.6836461153
   28      H       3.1726594413    -1.2861635065    -1.4296327708
   29      H       3.3315276224     0.9752379705    -0.5018784928
   30      H       1.3857805336     2.4034772323     1.9203368293
   31      H       0.5467901967     3.0468680156     0.4985613077
   32      H       3.3854884962     4.2867691408    -0.9290819217
 ----------------------------------------------------------------
 Nuclear Repulsion Energy =        1390.65749821 hartrees
 There are       68 alpha and       68 beta electrons
 Applying Cartesian multipole field
    Component          Value
    ---------          -----
     (2,0,0)        1.00000E-11
     (0,2,0)        2.00000E-11
     (0,0,2)       -3.00000E-11
 Nucleus-field energy     =     0.0000000738 hartrees
 Requested basis set is 6-31+G(d)
 There are 124 shells and 404 basis functions
 A cutoff of  1.0D-11 yielded   5909 shell pairs
 There are     67023 function pairs
 Smallest overlap matrix eigenvalue = 8.84E-09

 Q-Chem warning in module stvman/mkSTV.C, line 318:

 Overlap eigenvalue is smaller than square root of threshold
 Use THRESH >= 12 to get rid of this warning

 Linear dependence detected in AO basis
 Tighter screening thresholds may be required for diffuse basis sets
 Use S2THRESH > 14 and THRESH = 14 in case of SCF convergence issues
 Number of orthogonalized atomic orbitals = 394
 Maximum deviation from orthogonality = 2.235E-10
 Guess MOs from SCF MO coefficient file

 -----------------------------------------------------------------------
  General SCF calculation program by
  Eric Jon Sundstrom, Paul Horn, Yuezhi Mao, Dmitri Zuev, Alec White,
  David Stuck, Shaama M.S., Shane Yost, Joonho Lee, David Small,
  Daniel Levine, Susi Lehtola, Hugh Burton, Evgeny Epifanovsky,
  Bang C. Huynh
 -----------------------------------------------------------------------
 Exchange:     0.2000 Hartree-Fock + 0.0800 Slater + 0.7200 B88
 Correlation:  0.1900 VWN1RPA + 0.8100 LYP
 Using SG-1 standard quadrature grid
 A restricted SCF calculation will be
 performed using DIIS
 SCF converges when DIIS error is below 1.0e-08
 ---------------------------------------
  Cycle       Energy         DIIS error
 ---------------------------------------
    1    -843.6774378630      3.63e-04  
    2    -843.6799209694      8.32e-05  
    3    -843.6798477755      1.12e-04  
    4    -843.6800422254      3.61e-05  
    5    -843.6800621013      6.16e-06  
    6    -843.6800626672      3.43e-06  
    7    -843.6800629054      8.95e-07  
    8    -843.6800629177      5.91e-07  
    9    -843.6800629258      8.32e-08  
   10    -843.6800629259      5.99e-08  
   11    -843.6800629260      1.67e-08  
   12    -843.6800629260      7.46e-09  Convergence criterion met
 ---------------------------------------
 SCF time:   CPU 263.38s  wall 264.00s 
 SCF   energy in the final basis set =     -843.6800629260
 Total energy in the final basis set =     -843.6800629260
 
 --------------------------------------------------------------
 
                    Orbital Energies (a.u.)
 --------------------------------------------------------------
 
 Alpha MOs
 -- Occupied --
-19.2188 -19.1622 -10.3411 -10.2219 -10.2214 -10.2148 -10.2128 -10.2121
-10.2118 -10.2112 -10.2108 -10.2069 -10.2061 -10.2048 -10.2047 -10.2042
-10.2040 -10.2039 -10.2037 -10.2032  -1.1252  -1.0344  -0.9028  -0.8651
 -0.8417  -0.8162  -0.7919  -0.7638  -0.7546  -0.7388  -0.7127  -0.6469
 -0.6390  -0.6357  -0.6238  -0.6077  -0.5569  -0.5324  -0.5268  -0.5220
 -0.5048  -0.4996  -0.4873  -0.4838  -0.4548  -0.4525  -0.4437  -0.4416
 -0.4383  -0.4225  -0.4157  -0.4103  -0.4079  -0.4062  -0.3974  -0.3778
 -0.3723  -0.3681  -0.3500  -0.3410  -0.3392  -0.3294  -0.3061  -0.2944
 -0.2814  -0.2659  -0.2423  -0.2089
 -- Virtual --
 -0.0714  -0.0396  -0.0218  -0.0181  -0.0058  -0.0020   0.0039   0.0095
  0.0166   0.0226   0.0323   0.0361   0.0394   0.0421   0.0461   0.0553
  0.0587   0.0613   0.0635   0.0673   0.0715   0.0772   0.0884   0.0890
  0.0935   0.0990   0.1030   0.1107   0.1127   0.1176   0.1255   0.1315
  0.1322   0.1373   0.1374   0.1432   0.1463   0.1529   0.1542   0.1624
  0.1674   0.1697   0.1746   0.1760   0.1779   0.1810   0.1845   0.1872
  0.1911   0.1922   0.1967   0.2034   0.2043   0.2088   0.2125   0.2166
  0.2235   0.2241   0.2284   0.2314   0.2363   0.2420   0.2438   0.2455
  0.2479   0.2513   0.2593   0.2598   0.2636   0.2660   0.2694   0.2715
  0.2753   0.2812   0.2816   0.2911   0.2919   0.2957   0.2966   0.2983
  0.3018   0.3061   0.3105   0.3131   0.3152   0.3207   0.3240   0.3310
  0.3378   0.3417   0.3468   0.3529   0.3600   0.3721   0.3836   0.3911
  0.4023   0.4047   0.4152   0.4195   0.4289   0.4363   0.4421   0.4546
  0.4686   0.4819   0.4960   0.5117   0.5285   0.5414   0.5669   0.5892
  0.6368   0.6456   0.6512   0.6654   0.6727   0.6778   0.6880   0.6968
  0.6982   0.6996   0.7125   0.7201   0.7206   0.7306   0.7325   0.7346
  0.7485   0.7503   0.7536   0.7573   0.7598   0.7676   0.7750   0.7814
  0.7833   0.7862   0.7916   0.7965   0.7970   0.8042   0.8072   0.8308
  0.8521   0.8561   0.8724   0.8862   0.8939   0.8957   0.9114   0.9172
  0.9268   0.9476   0.9509   0.9644   0.9677   0.9742   0.9952   1.0136
  1.0238   1.0461   1.0616   1.0654   1.0848   1.1060   1.1223   1.1320
  1.1548   1.1605   1.1640   1.1658   1.1697   1.1765   1.1869   1.1922
  1.2081   1.2132   1.2219   1.2242   1.2379   1.2460   1.2558   1.2689
  1.2765   1.2855   1.2940   1.3013   1.3141   1.3285   1.3318   1.3366
  1.3500   1.3756   1.3819   1.3881   1.4104   1.4167   1.4242   1.4579
  1.4607   1.4631   1.4639   1.4752   1.4787   1.4815   1.4861   1.5243
  1.5363   1.5531   1.5570   1.5688   1.6038   1.6323   1.6640   1.7092
  1.7311   1.7395   1.7588   1.7633   1.7685   1.7905   1.8003   1.8104
  1.8214   1.8343   1.8446   1.8473   1.8710   1.8814   1.8875   1.9082
  1.9168   1.9301   1.9328   1.9429   1.9454   1.9493   1.9617   1.9712
  1.9890   1.9982   2.0262   2.0376   2.0391   2.0663   2.0862   2.1114
  2.1377   2.1457   2.1579   2.1883   2.2028   2.2263   2.2284   2.2473
  2.2669   2.2702   2.2852   2.2972   2.3054   2.3220   2.3246   2.3623
  2.3672   2.3710   2.3790   2.4055   2.4120   2.4268   2.4488   2.4623
  2.4975   2.5084   2.5207   2.5626   2.5924   2.6335   2.6451   2.6517
  2.6655   2.6809   2.6975   2.7308   2.7399   2.7558   2.7706   2.7987
  2.8065   2.8327   2.8577   2.8678   2.8851   2.9058   2.9307   2.9558
  2.9837   3.0566   3.0717   3.0807   3.1018   3.1324   3.2235   3.3361
  3.4760   3.5359   4.1968   4.2101   4.2321   4.2427   4.2697   4.3150
  4.3385   4.3424   4.3469   4.3716   4.3830   4.4174   4.4324   4.4506
  4.4671   4.4911   4.5795   4.6215   4.7065   4.9189
 --------------------------------------------------------------
 
          Ground-State Mulliken Net Atomic Charges

     Atom                 Charge (a.u.)
  ----------------------------------------
      1 C                     0.735926
      2 C                    -0.196369
      3 C                    -0.312439
      4 C                    -0.087923
      5 C                     0.340666
      6 C                    -0.187146
      7 C                     0.272623
      8 C                    -0.247324
      9 C                    -0.478166
     10 C                    -0.250353
     11 C                     0.418778
     12 C                    -0.425962
     13 C                    -0.386723
     14 C                    -0.566067
     15 C                    -1.076348
     16 C                     1.252081
     17 C                    -0.537364
     18 C                    -0.006882
     19 O                    -0.523987
     20 O                    -0.389311
     21 H                     0.184400
     22 H                     0.184970
     23 H                     0.183449
     24 H                     0.182818
     25 H                     0.184679
     26 H                     0.181336
     27 H                     0.183902
     28 H                     0.187957
     29 H                     0.190594
     30 H                     0.259361
     31 H                     0.238151
     32 H                     0.490675
  ----------------------------------------
  Sum of atomic charges =     0.000000

 -----------------------------------------------------------------
                    Cartesian Multipole Moments
 -----------------------------------------------------------------
    Charge (ESU x 10^10)
                -0.0000
    Dipole Moment (Debye)
         X      -1.4797      Y      -0.3493      Z      -1.0541
       Tot       1.8501
    Quadrupole Moments (Debye-Ang)
        XX    -111.9989     XY       0.0032     YY    -103.8409
        XZ     -13.1968     YZ       1.5541     ZZ    -118.9407
    Octopole Moments (Debye-Ang^2)
       XXX     -57.0878    XXY      25.0097    XYY      -9.5383
       YYY     148.8281    XXZ     -31.9483    XYZ     -26.4308
       YYZ     -39.0624    XZZ      -5.1165    YZZ      54.4744
       ZZZ      -1.0695
    Hexadecapole Moments (Debye-Ang^3)
      XXXX   -3361.0473   XXXY   -1129.6359   XXYY   -1159.6847
      XYYY    -968.2346   YYYY   -3835.4234   XXXZ    -101.1789
      XXYZ    -234.2148   XYYZ     -65.9857   YYYZ    -285.3184
      XXZZ    -693.0026   XYZZ    -427.8810   YYZZ    -807.2357
      XZZZ     143.2571   YZZZ    -322.6593   ZZZZ    -636.7307
 -----------------------------------------------------------------
 Calculating analytic gradient of the SCF energy
 Gradient of SCF Energy
            1           2           3           4           5           6
    1  -0.0000606  -0.0012973   0.0026533  -0.0027689  -0.0019846   0.0029235
    2   0.0026501  -0.0028040   0.0017587  -0.0017926   0.0014575  -0.0002067
    3   0.0011297  -0.0006999  -0.0001873   0.0002325   0.0013887  -0.0011898
            7           8           9          10          11          12
    1   0.0004004  -0.0002352  -0.0007498   0.0004086   0.0019392  -0.0029856
    2  -0.0023430   0.0005223  -0.0003923  -0.0005628  -0.0021257   0.0003729
    3  -0.0011867   0.0003282   0.0000967  -0.0003611  -0.0015528   0.0012979
           13          14          15          16          17          18
    1   0.0012203   0.0001903   0.0006812  -0.0000391   0.0001562  -0.0006038
    2   0.0027375  -0.0007868   0.0001974   0.0002921   0.0018338  -0.0004463
    3   0.0007329  -0.0004062  -0.0001926   0.0000154   0.0014101  -0.0033295
           19          20          21          22          23          24
    1   0.0010062   0.0003524   0.0003709  -0.0003997  -0.0002009  -0.0002303
    2  -0.0000551   0.0006855   0.0002686  -0.0002029   0.0000301  -0.0001574
    3   0.0021996   0.0010109  -0.0000146   0.0000684   0.0000896   0.0000491
           25          26          27          28          29          30
    1  -0.0000610   0.0003115  -0.0004036   0.0001495   0.0000159  -0.0002273
    2  -0.0001966   0.0000382  -0.0003335  -0.0000939  -0.0003876  -0.0000468
    3  -0.0000644  -0.0000848  -0.0000068  -0.0000992  -0.0001700  -0.0001403
           31          32
    1  -0.0001420  -0.0003898
    2  -0.0000036   0.0000929
    3   0.0001343  -0.0004977
 Max gradient component =       3.329E-03
 RMS gradient           =       1.141E-03
 Gradient time:  CPU 113.01 s  wall 113.28 s
 Geometry Optimization Parameters
   NAtoms,    NIC,     NZ,  NCons,   NDum,   NFix, NCnnct, MaxDiis
       32     247       0       0       0       0       0       0

 Cartesian Hessian Update
 Hessian updated using BFGS update


** GEOMETRY OPTIMIZATION IN DELOCALIZED INTERNAL COORDINATES **
   Searching for a Minimum

   Optimization Cycle:   2

                       Coordinates (Angstroms)
     ATOM                X               Y               Z
      1  C         1.1268521608   -1.5953057731   -0.8251501289
      2  C         1.0092523454   -2.9293742195   -1.3614657922
      3  C         0.0061864688   -1.0124793780   -0.1603930926
      4  C        -1.2095929149   -1.7654114559   -0.0350231948
      5  C        -1.2977893146   -3.0849837731   -0.5760308195
      6  C        -0.1455779348   -3.6393596672   -1.2442782310
      7  C        -2.3376115938   -1.2024897029    0.6322001412
      8  C        -3.5207443867   -1.9546729484    0.7460150710
      9  C        -3.5983810275   -3.2420267346    0.2134519661
     10  C        -2.4986437345   -3.8026770387   -0.4406775301
     11  C         0.0968449604    0.3101912396    0.3772523878
     12  C        -1.0655515548    0.8437678426    1.0505404740
     13  C        -2.2180764944    0.1266652878    1.1709309628
     14  C         2.3091552177   -0.8506306788   -0.9316403423
     15  C         2.3921442312    0.4385147110   -0.4061263911
     16  C         1.3062472775    1.0397775591    0.2402247422
     17  C         1.4048188997    2.4492750382    0.8255912934
     18  C         2.6630447198    3.2020292057    0.4448510633
     19  O         2.5425784805    3.8288239422   -0.7503113418
     20  O         3.6711664577    3.2736858539    1.1168165235
     21  H         1.8742229041   -3.3559989385   -1.8650969817
     22  H        -0.2229627012   -4.6449782635   -1.6522967069
     23  H        -4.3787625149   -1.5213896682    1.2557198289
     24  H        -4.5190051999   -3.8127774003    0.3086458320
     25  H        -2.5651269756   -4.8077210689   -0.8522344605
     26  H        -1.0190212260    1.8408248872    1.4766236605
     27  H        -3.0782118400    0.5524202895    1.6836461153
     28  H         3.1726594413   -1.2861635065   -1.4296327708
     29  H         3.3315276224    0.9752379705   -0.5018784928
     30  H         1.3857805336    2.4034772323    1.9203368293
     31  H         0.5467901967    3.0468680156    0.4985613077
     32  H         3.3854884962    4.2867691408   -0.9290819217
   Point Group: c1    Number of degrees of freedom:    90


   Energy is   -843.680062926

 Hessian updated using BFGS update

 90 Hessian modes will be used to form the next step
  Hessian Eigenvalues:
     0.006871    0.008555    0.012220    0.016359    0.017949    0.019116
     0.019461    0.019722    0.019908    0.020130    0.020774    0.021091
     0.021825    0.022542    0.022696    0.022792    0.022839    0.023040
     0.023589    0.023677    0.023793    0.023927    0.023975    0.024134
     0.024199    0.024969    0.025336    0.049859    0.065502    0.100980
     0.133363    0.159937    0.159998    0.159999    0.160000    0.160000
     0.160000    0.160000    0.160000    0.160000    0.160655    0.221229
     0.222033    0.223781    0.225485    0.226903    0.235268    0.244175
     0.246003    0.247111    0.249114    0.249669    0.249989    0.249995
     0.250208    0.309525    0.319907    0.326298    0.346313    0.347155
     0.353911    0.354057    0.354068    0.354081    0.354129    0.354355
     0.354530    0.355263    0.355451    0.356222    0.371369    0.383208
     0.387402    0.399340    0.400880    0.406285    0.412742    0.436210
     0.442242    0.462718    0.464087    0.465295    0.477254    0.477400
     0.500398    0.533510    0.535673    0.543344    0.560586    1.016162

 Minimum search - taking simple RFO step
 Searching for Lamda that Minimizes Along All modes
 Value Taken    Lamda =  -0.00024784
 Step Taken.  Stepsize is  0.085567

                             Maximum     Tolerance    Cnvgd?
         Gradient           0.004326      0.000300      NO
         Displacement       0.057881      0.001200      NO
         Energy change     -0.002306      0.000001      NO


 New Cartesian Coordinates Obtained by Inverse Iteration

 Displacement from previous Coordinates is:  0.175373
 ----------------------------------------------------------------
             Standard Nuclear Orientation (Angstroms)
    I     Atom           X                Y                Z
 ----------------------------------------------------------------
    1      C       1.1267715576    -1.5889274015    -0.8224235967
    2      C       1.0126012870    -2.9190345457    -1.3608968784
    3      C       0.0036328038    -1.0084352805    -0.1570241890
    4      C      -1.2077288028    -1.7612417500    -0.0339994494
    5      C      -1.2929846024    -3.0808025501    -0.5784442011
    6      C      -0.1423406278    -3.6315767044    -1.2457824676
    7      C      -2.3378255621    -1.2006389149     0.6344054824
    8      C      -3.5191790087    -1.9557443641     0.7453704379
    9      C      -3.5936141383    -3.2416049613     0.2097438451
   10      C      -2.4933326246    -3.7995243284    -0.4448207173
   11      C       0.0909603277     0.3144489800     0.3835112130
   12      C      -1.0693213104     0.8449106101     1.0555401294
   13      C      -2.2216571362     0.1250624117     1.1747252017
   14      C       2.3078098522    -0.8411554036    -0.9258193081
   15      C       2.3872021382     0.4465516479    -0.3978394760
   16      C       1.2997434153     1.0434990450     0.2476525680
   17      C       1.3990987390     2.4503347502     0.8314496672
   18      C       2.6572702544     3.1992632514     0.4447176569
   19      O       2.5403614764     3.7988191537    -0.7668636360
   20      O       3.6806407302     3.2437538204     1.0954281523
   21      H       1.8772564317    -3.3452051400    -1.8652032766
   22      H      -0.2157967354    -4.6361892251    -1.6566976683
   23      H      -4.3783112506    -1.5252969622     1.2552969978
   24      H      -4.5132710927    -3.8138458039     0.3027780599
   25      H      -2.5584288390    -4.8037408474    -0.8582613653
   26      H      -1.0261834866     1.8413611733     1.4836309123
   27      H      -3.0810925326     0.5508753125     1.6883529094
   28      H       3.1728950586    -1.2734760912    -1.4236005447
   29      H       3.3246228917     0.9878904066    -0.4902931724
   30      H       1.3855910053     2.4059837405     1.9267855159
   31      H       0.5411876091     3.0492512808     0.5060378249
   32      H       3.3931231718     4.2343226902    -0.9573666272
 ----------------------------------------------------------------
 Nuclear Repulsion Energy =        1392.06964805 hartrees
 There are       68 alpha and       68 beta electrons
 Applying Cartesian multipole field
    Component          Value
    ---------          -----
     (2,0,0)        1.00000E-11
     (0,2,0)        2.00000E-11
     (0,0,2)       -3.00000E-11
 Nucleus-field energy     =     0.0000000734 hartrees
 Requested basis set is 6-31+G(d)
 There are 124 shells and 404 basis functions
 A cutoff of  1.0D-11 yielded   5912 shell pairs
 There are     67079 function pairs
 Smallest overlap matrix eigenvalue = 8.72E-09

 Q-Chem warning in module stvman/mkSTV.C, line 318:

 Overlap eigenvalue is smaller than square root of threshold
 Use THRESH >= 12 to get rid of this warning

 Linear dependence detected in AO basis
 Tighter screening thresholds may be required for diffuse basis sets
 Use S2THRESH > 14 and THRESH = 14 in case of SCF convergence issues
 Number of orthogonalized atomic orbitals = 394
 Maximum deviation from orthogonality = 1.566E-10
 Guess MOs from SCF MO coefficient file

 -----------------------------------------------------------------------
  General SCF calculation program by
  Eric Jon Sundstrom, Paul Horn, Yuezhi Mao, Dmitri Zuev, Alec White,
  David Stuck, Shaama M.S., Shane Yost, Joonho Lee, David Small,
  Daniel Levine, Susi Lehtola, Hugh Burton, Evgeny Epifanovsky,
  Bang C. Huynh
 -----------------------------------------------------------------------
 Exchange:     0.2000 Hartree-Fock + 0.0800 Slater + 0.7200 B88
 Correlation:  0.1900 VWN1RPA + 0.8100 LYP
 Using SG-1 standard quadrature grid
 A restricted SCF calculation will be
 performed using DIIS
 SCF converges when DIIS error is below 1.0e-08
 ---------------------------------------
  Cycle       Energy         DIIS error
 ---------------------------------------
    1    -843.6787658185      2.25e-04  
    2    -843.6800650544      2.94e-05  
    3    -843.6800628323      3.50e-05  
    4    -843.6800858573      1.32e-05  
    5    -843.6800892258      4.67e-06  
    6    -843.6800896185      1.52e-06  
    7    -843.6800896591      6.26e-07  
    8    -843.6800896672      1.62e-07  
    9    -843.6800896677      5.85e-08  
   10    -843.6800896678      2.42e-08  
   11    -843.6800896678      8.95e-09  Convergence criterion met
 ---------------------------------------
 SCF time:   CPU 242.60s  wall 244.00s 
 SCF   energy in the final basis set =     -843.6800896678
 Total energy in the final basis set =     -843.6800896678
 
 --------------------------------------------------------------
 
                    Orbital Energies (a.u.)
 --------------------------------------------------------------
 
 Alpha MOs
 -- Occupied --
-19.2187 -19.1627 -10.3412 -10.2214 -10.2211 -10.2145 -10.2125 -10.2118
-10.2116 -10.2110 -10.2106 -10.2067 -10.2059 -10.2045 -10.2044 -10.2038
-10.2037 -10.2037 -10.2035 -10.2029  -1.1249  -1.0346  -0.9031  -0.8652
 -0.8421  -0.8166  -0.7921  -0.7640  -0.7548  -0.7387  -0.7125  -0.6466
 -0.6392  -0.6357  -0.6236  -0.6075  -0.5567  -0.5325  -0.5267  -0.5221
 -0.5052  -0.5000  -0.4873  -0.4837  -0.4548  -0.4521  -0.4437  -0.4416
 -0.4386  -0.4222  -0.4159  -0.4104  -0.4077  -0.4061  -0.3975  -0.3780
 -0.3724  -0.3680  -0.3503  -0.3408  -0.3396  -0.3296  -0.3061  -0.2948
 -0.2817  -0.2660  -0.2421  -0.2085
 -- Virtual --
 -0.0716  -0.0395  -0.0216  -0.0183  -0.0060  -0.0017   0.0040   0.0094
  0.0166   0.0226   0.0324   0.0363   0.0394   0.0421   0.0462   0.0554
  0.0588   0.0615   0.0635   0.0674   0.0717   0.0773   0.0889   0.0892
  0.0935   0.0990   0.1030   0.1108   0.1129   0.1183   0.1257   0.1313
  0.1323   0.1370   0.1375   0.1434   0.1464   0.1530   0.1543   0.1624
  0.1675   0.1701   0.1745   0.1762   0.1784   0.1812   0.1844   0.1876
  0.1912   0.1926   0.1980   0.2034   0.2045   0.2089   0.2132   0.2168
  0.2235   0.2244   0.2286   0.2317   0.2363   0.2423   0.2442   0.2457
  0.2479   0.2517   0.2594   0.2596   0.2637   0.2664   0.2692   0.2720
  0.2755   0.2816   0.2819   0.2913   0.2922   0.2959   0.2963   0.2969
  0.3021   0.3066   0.3115   0.3138   0.3154   0.3203   0.3251   0.3314
  0.3386   0.3422   0.3467   0.3544   0.3593   0.3719   0.3841   0.3920
  0.4020   0.4054   0.4151   0.4208   0.4285   0.4369   0.4422   0.4544
  0.4688   0.4831   0.4960   0.5108   0.5300   0.5412   0.5673   0.5892
  0.6370   0.6464   0.6513   0.6652   0.6731   0.6779   0.6881   0.6972
  0.6988   0.7014   0.7125   0.7202   0.7212   0.7308   0.7332   0.7348
  0.7491   0.7506   0.7542   0.7579   0.7597   0.7683   0.7750   0.7815
  0.7831   0.7867   0.7900   0.7968   0.7971   0.8046   0.8068   0.8310
  0.8525   0.8564   0.8722   0.8859   0.8938   0.8951   0.9112   0.9169
  0.9263   0.9474   0.9508   0.9643   0.9676   0.9741   0.9954   1.0151
  1.0245   1.0470   1.0620   1.0662   1.0855   1.1071   1.1226   1.1326
  1.1548   1.1615   1.1650   1.1661   1.1706   1.1771   1.1874   1.1928
  1.2084   1.2137   1.2222   1.2248   1.2386   1.2462   1.2577   1.2697
  1.2764   1.2855   1.2953   1.3008   1.3133   1.3262   1.3335   1.3364
  1.3505   1.3731   1.3796   1.3898   1.4106   1.4192   1.4242   1.4579
  1.4613   1.4635   1.4640   1.4752   1.4788   1.4817   1.4863   1.5260
  1.5386   1.5533   1.5570   1.5692   1.6051   1.6332   1.6653   1.7090
  1.7317   1.7393   1.7605   1.7639   1.7697   1.7922   1.7985   1.8109
  1.8227   1.8350   1.8447   1.8498   1.8723   1.8834   1.8894   1.9091
  1.9182   1.9309   1.9335   1.9430   1.9444   1.9488   1.9609   1.9719
  1.9897   2.0004   2.0262   2.0391   2.0412   2.0667   2.0885   2.1126
  2.1382   2.1455   2.1604   2.1879   2.2039   2.2257   2.2286   2.2482
  2.2674   2.2707   2.2854   2.2988   2.3066   2.3238   2.3253   2.3633
  2.3677   2.3720   2.3805   2.4067   2.4123   2.4276   2.4532   2.4595
  2.4993   2.5089   2.5222   2.5633   2.5929   2.6342   2.6452   2.6527
  2.6671   2.6813   2.6979   2.7317   2.7391   2.7560   2.7694   2.7975
  2.8065   2.8338   2.8597   2.8654   2.8851   2.9074   2.9322   2.9565
  2.9850   3.0568   3.0714   3.0822   3.1033   3.1335   3.2255   3.3374
  3.4803   3.5366   4.1969   4.2114   4.2337   4.2437   4.2710   4.3156
  4.3383   4.3422   4.3466   4.3707   4.3866   4.4176   4.4334   4.4511
  4.4676   4.4909   4.5802   4.6213   4.7072   4.9205
 --------------------------------------------------------------
 
          Ground-State Mulliken Net Atomic Charges

     Atom                 Charge (a.u.)
  ----------------------------------------
      1 C                     0.736352
      2 C                    -0.191702
      3 C                    -0.320735
      4 C                    -0.097177
      5 C                     0.341573
      6 C                    -0.182675
      7 C                     0.267956
      8 C                    -0.241933
      9 C                    -0.481761
     10 C                    -0.244716
     11 C                     0.424952
     12 C                    -0.432879
     13 C                    -0.390323
     14 C                    -0.579052
     15 C                    -1.063346
     16 C                     1.248119
     17 C                    -0.509528
     18 C                    -0.025652
     19 O                    -0.521823
     20 O                    -0.386284
     21 H                     0.184438
     22 H                     0.184971
     23 H                     0.183395
     24 H                     0.182653
     25 H                     0.184618
     26 H                     0.181571
     27 H                     0.183928
     28 H                     0.187901
     29 H                     0.191741
     30 H                     0.258319
     31 H                     0.237094
     32 H                     0.490005
  ----------------------------------------
  Sum of atomic charges =     0.000000

 -----------------------------------------------------------------
                    Cartesian Multipole Moments
 -----------------------------------------------------------------
    Charge (ESU x 10^10)
                -0.0000
    Dipole Moment (Debye)
         X      -1.4781      Y      -0.3323      Z      -1.0272
       Tot       1.8303
    Quadrupole Moments (Debye-Ang)
        XX    -112.0788     XY      -0.0045     YY    -103.9103
        XZ     -13.1283     YZ       1.7391     ZZ    -118.7535
    Octopole Moments (Debye-Ang^2)
       XXX     -57.1904    XXY      25.1124    XYY      -9.6746
       YYY     147.9470    XXZ     -31.8885    XYZ     -26.0034
       YYZ     -38.1041    XZZ      -4.5004    YZZ      54.9874
       ZZZ      -1.0528
    Hexadecapole Moments (Debye-Ang^3)
      XXXX   -3360.7066   XXXY   -1126.2867   XXYY   -1157.3719
      XYYY    -969.5635   YYYY   -3823.8761   XXXZ     -99.7411
      XXYZ    -232.1262   XYYZ     -62.3886   YYYZ    -277.9483
      XXZZ    -690.1169   XYZZ    -424.0299   YYZZ    -800.9996
      XZZZ     144.5786   YZZZ    -320.1223   ZZZZ    -636.4618
 -----------------------------------------------------------------
 Calculating analytic gradient of the SCF energy
 Gradient of SCF Energy
            1           2           3           4           5           6
    1  -0.0002167  -0.0002614   0.0008058  -0.0009447  -0.0003890   0.0008346
    2   0.0005990  -0.0008275   0.0006905  -0.0006136   0.0005600  -0.0001636
    3   0.0003451  -0.0002609   0.0000001   0.0000811   0.0003980  -0.0003820
            7           8           9          10          11          12
    1   0.0003159  -0.0002345  -0.0004013   0.0002631   0.0004184  -0.0008581
    2  -0.0005646   0.0003529  -0.0002097  -0.0003927  -0.0008870   0.0001870
    3  -0.0003766   0.0002595   0.0000605  -0.0002599  -0.0004875   0.0003971
           13          14          15          16          17          18
    1   0.0002514   0.0001996   0.0000950  -0.0005001   0.0006235  -0.0023202
    2   0.0007938  -0.0004504   0.0004531   0.0002599  -0.0015579   0.0051405
    3   0.0002676  -0.0002767   0.0001091   0.0003117  -0.0006862   0.0012153
           19          20          21          22          23          24
    1   0.0004457   0.0014384   0.0002074  -0.0001940  -0.0000989  -0.0000838
    2  -0.0017435  -0.0017455   0.0001295  -0.0001270   0.0000276  -0.0000621
    3  -0.0002781  -0.0001507  -0.0000199   0.0000266   0.0000492   0.0000197
           25          26          27          28          29          30
    1  -0.0000132   0.0001455  -0.0002088   0.0001121   0.0002075   0.0002288
    2  -0.0001008   0.0000779  -0.0001315   0.0000075   0.0001674  -0.0000447
    3  -0.0000283  -0.0000168   0.0000179  -0.0000438  -0.0000574   0.0000136
           31          32
    1   0.0000619   0.0000701
    2   0.0001487   0.0000265
    3  -0.0001838  -0.0000635
 Max gradient component =       5.141E-03
 RMS gradient           =       7.629E-04
 Gradient time:  CPU 111.77 s  wall 112.03 s
 Geometry Optimization Parameters
   NAtoms,    NIC,     NZ,  NCons,   NDum,   NFix, NCnnct, MaxDiis
       32     247       0       0       0       0       0       0

 Cartesian Hessian Update
 Hessian updated using BFGS update


** GEOMETRY OPTIMIZATION IN DELOCALIZED INTERNAL COORDINATES **
   Searching for a Minimum

   Optimization Cycle:   3

                       Coordinates (Angstroms)
     ATOM                X               Y               Z
      1  C         1.1267715576   -1.5889274015   -0.8224235967
      2  C         1.0126012870   -2.9190345457   -1.3608968784
      3  C         0.0036328038   -1.0084352805   -0.1570241890
      4  C        -1.2077288028   -1.7612417500   -0.0339994494
      5  C        -1.2929846024   -3.0808025501   -0.5784442011
      6  C        -0.1423406278   -3.6315767044   -1.2457824676
      7  C        -2.3378255621   -1.2006389149    0.6344054824
      8  C        -3.5191790087   -1.9557443641    0.7453704379
      9  C        -3.5936141383   -3.2416049613    0.2097438451
     10  C        -2.4933326246   -3.7995243284   -0.4448207173
     11  C         0.0909603277    0.3144489800    0.3835112130
     12  C        -1.0693213104    0.8449106101    1.0555401294
     13  C        -2.2216571362    0.1250624117    1.1747252017
     14  C         2.3078098522   -0.8411554036   -0.9258193081
     15  C         2.3872021382    0.4465516479   -0.3978394760
     16  C         1.2997434153    1.0434990450    0.2476525680
     17  C         1.3990987390    2.4503347502    0.8314496672
     18  C         2.6572702544    3.1992632514    0.4447176569
     19  O         2.5403614764    3.7988191537   -0.7668636360
     20  O         3.6806407302    3.2437538204    1.0954281523
     21  H         1.8772564317   -3.3452051400   -1.8652032766
     22  H        -0.2157967354   -4.6361892251   -1.6566976683
     23  H        -4.3783112506   -1.5252969622    1.2552969978
     24  H        -4.5132710927   -3.8138458039    0.3027780599
     25  H        -2.5584288390   -4.8037408474   -0.8582613653
     26  H        -1.0261834866    1.8413611733    1.4836309123
     27  H        -3.0810925326    0.5508753125    1.6883529094
     28  H         3.1728950586   -1.2734760912   -1.4236005447
     29  H         3.3246228917    0.9878904066   -0.4902931724
     30  H         1.3855910053    2.4059837405    1.9267855159
     31  H         0.5411876091    3.0492512808    0.5060378249
     32  H         3.3931231718    4.2343226902   -0.9573666272
   Point Group: c1    Number of degrees of freedom:    90


   Energy is   -843.680089668

 Hessian updated using BFGS update

 90 Hessian modes will be used to form the next step
  Hessian Eigenvalues:
     0.006817    0.008427    0.016350    0.017948    0.019111    0.019459
     0.019721    0.019907    0.020130    0.020774    0.021091    0.021819
     0.022541    0.022693    0.022789    0.022839    0.023031    0.023589
     0.023677    0.023791    0.023927    0.023972    0.024130    0.024198
     0.024967    0.025335    0.038711    0.049864    0.066056    0.101253
     0.133387    0.141728    0.159998    0.159999    0.160000    0.160000
     0.160000    0.160000    0.160000    0.160002    0.160663    0.211066
     0.221325    0.223761    0.225207    0.226879    0.234451    0.235282
     0.244196    0.246086    0.248070    0.249677    0.249991    0.250001
     0.255486    0.277223    0.316947    0.320275    0.336592    0.347131
     0.347655    0.354055    0.354066    0.354081    0.354113    0.354206
     0.354467    0.354737    0.355316    0.355474    0.356305    0.371447
     0.387389    0.399372    0.400141    0.406038    0.412550    0.435123
     0.442242    0.463028    0.464157    0.464787    0.466495    0.477442
     0.477632    0.530585    0.535190    0.543345    0.557218    1.012330

 Minimum search - taking simple RFO step
 Searching for Lamda that Minimizes Along All modes
 Value Taken    Lamda =  -0.00025655
 Step Taken.  Stepsize is  0.079970

                             Maximum     Tolerance    Cnvgd?
         Gradient           0.002151      0.000300      NO
         Displacement       0.049841      0.001200      NO
         Energy change     -0.000027      0.000001      NO


 New Cartesian Coordinates Obtained by Inverse Iteration

 Displacement from previous Coordinates is:  0.125118
 ----------------------------------------------------------------
             Standard Nuclear Orientation (Angstroms)
    I     Atom           X                Y                Z
 ----------------------------------------------------------------
    1      C       1.1272517265    -1.5939920649    -0.8204501845
    2      C       1.0124473483    -2.9213382614    -1.3580843903
    3      C       0.0037907434    -1.0114418264    -0.1562501107
    4      C      -1.2056428935    -1.7603739242    -0.0341891247
    5      C      -1.2919733959    -3.0802822477    -0.5788364320
    6      C      -0.1440727627    -3.6323155065    -1.2438534278
    7      C      -2.3357984163    -1.1975927571     0.6335490104
    8      C      -3.5172810065    -1.9514746139     0.7430698930
    9      C      -3.5924154369    -3.2363710429     0.2075282519
   10      C      -2.4934759789    -3.7960180729    -0.4457353510
   11      C       0.0917500232     0.3119357444     0.3841265500
   12      C      -1.0652566987     0.8441533003     1.0536271714
   13      C      -2.2189615933     0.1257501490     1.1726410808
   14      C       2.3088181291    -0.8473257224    -0.9220299441
   15      C       2.3885253173     0.4394418787    -0.3945623708
   16      C       1.3013881270     1.0368363202     0.2484684357
   17      C       1.4027373513     2.4417199560     0.8297292879
   18      C       2.6595592323     3.1857289717     0.4328009395
   19      O       2.5192398651     3.8177201685    -0.7611999158
   20      O       3.6822083832     3.2451647187     1.0823669767
   21      H       1.8754185646    -3.3508786587    -1.8618289273
   22      H      -0.2163153232    -4.6364510493    -1.6554431214
   23      H      -4.3761656075    -1.5201539786     1.2520671425
   24      H      -4.5127265266    -3.8070703398     0.2995584560
   25      H      -2.5600010359    -4.7999769433    -0.8588665255
   26      H      -1.0226778450     1.8406109907     1.4816147685
   27      H      -3.0763944375     0.5552808813     1.6859640161
   28      H       3.1740371487    -1.2804518125    -1.4182960029
   29      H       3.3258502201     0.9812558555    -0.4846009934
   30      H       1.3962096078     2.3991227140     1.9253633284
   31      H       0.5437805516     3.0411004910     0.5082718411
   32      H       3.3658476189     4.2675746825    -0.9464303277
 ----------------------------------------------------------------
 Nuclear Repulsion Energy =        1392.83886170 hartrees
 There are       68 alpha and       68 beta electrons
 Applying Cartesian multipole field
    Component          Value
    ---------          -----
     (2,0,0)        1.00000E-11
     (0,2,0)        2.00000E-11
     (0,0,2)       -3.00000E-11
 Nucleus-field energy     =     0.0000000734 hartrees
 Requested basis set is 6-31+G(d)
 There are 124 shells and 404 basis functions
 A cutoff of  1.0D-11 yielded   5912 shell pairs
 There are     67044 function pairs
 Smallest overlap matrix eigenvalue = 8.55E-09

 Q-Chem warning in module stvman/mkSTV.C, line 318:

 Overlap eigenvalue is smaller than square root of threshold
 Use THRESH >= 12 to get rid of this warning

 Linear dependence detected in AO basis
 Tighter screening thresholds may be required for diffuse basis sets
 Use S2THRESH > 14 and THRESH = 14 in case of SCF convergence issues
 Number of orthogonalized atomic orbitals = 394
 Maximum deviation from orthogonality = 1.489E-10
 Guess MOs from SCF MO coefficient file

 -----------------------------------------------------------------------
  General SCF calculation program by
  Eric Jon Sundstrom, Paul Horn, Yuezhi Mao, Dmitri Zuev, Alec White,
  David Stuck, Shaama M.S., Shane Yost, Joonho Lee, David Small,
  Daniel Levine, Susi Lehtola, Hugh Burton, Evgeny Epifanovsky,
  Bang C. Huynh
 -----------------------------------------------------------------------
 Exchange:     0.2000 Hartree-Fock + 0.0800 Slater + 0.7200 B88
 Correlation:  0.1900 VWN1RPA + 0.8100 LYP
 Using SG-1 standard quadrature grid
 A restricted SCF calculation will be
 performed using DIIS
 SCF converges when DIIS error is below 1.0e-08
 ---------------------------------------
  Cycle       Energy         DIIS error
 ---------------------------------------
    1    -843.6793741477      1.66e-04  
    2    -843.6801511011      1.84e-05  
    3    -843.6801575739      1.47e-05  
    4    -843.6801605956      8.78e-06  
    5    -843.6801623143      2.58e-06  
    6    -843.6801624483      1.02e-06  
    7    -843.6801624683      3.89e-07  
    8    -843.6801624711      1.19e-07  
    9    -843.6801624714      5.26e-08  
   10    -843.6801624714      1.91e-08  
   11    -843.6801624715      5.90e-09  Convergence criterion met
 ---------------------------------------
 SCF time:   CPU 243.93s  wall 244.00s 
 SCF   energy in the final basis set =     -843.6801624715
 Total energy in the final basis set =     -843.6801624715
 
 --------------------------------------------------------------
 
                    Orbital Energies (a.u.)
 --------------------------------------------------------------
 
 Alpha MOs
 -- Occupied --
-19.2184 -19.1628 -10.3410 -10.2209 -10.2206 -10.2140 -10.2122 -10.2115
-10.2114 -10.2107 -10.2104 -10.2065 -10.2056 -10.2042 -10.2042 -10.2035
-10.2035 -10.2035 -10.2032 -10.2027  -1.1246  -1.0347  -0.9037  -0.8657
 -0.8427  -0.8171  -0.7925  -0.7644  -0.7552  -0.7389  -0.7125  -0.6466
 -0.6395  -0.6359  -0.6237  -0.6073  -0.5568  -0.5327  -0.5267  -0.5226
 -0.5055  -0.5003  -0.4874  -0.4838  -0.4548  -0.4521  -0.4438  -0.4418
 -0.4389  -0.4224  -0.4162  -0.4105  -0.4079  -0.4060  -0.3975  -0.3783
 -0.3726  -0.3681  -0.3507  -0.3407  -0.3395  -0.3298  -0.3063  -0.2949
 -0.2820  -0.2662  -0.2421  -0.2083
 -- Virtual --
 -0.0718  -0.0395  -0.0215  -0.0181  -0.0056  -0.0014   0.0040   0.0095
  0.0166   0.0227   0.0324   0.0364   0.0393   0.0422   0.0461   0.0554
  0.0589   0.0616   0.0636   0.0675   0.0717   0.0773   0.0887   0.0891
  0.0937   0.0989   0.1030   0.1109   0.1128   0.1181   0.1259   0.1316
  0.1325   0.1374   0.1375   0.1436   0.1465   0.1530   0.1543   0.1626
  0.1677   0.1701   0.1743   0.1762   0.1783   0.1811   0.1844   0.1875
  0.1913   0.1926   0.1975   0.2034   0.2046   0.2091   0.2133   0.2172
  0.2239   0.2243   0.2287   0.2322   0.2364   0.2423   0.2445   0.2460
  0.2480   0.2521   0.2596   0.2604   0.2638   0.2663   0.2691   0.2720
  0.2759   0.2813   0.2822   0.2916   0.2925   0.2963   0.2968   0.2985
  0.3019   0.3064   0.3118   0.3138   0.3157   0.3208   0.3249   0.3317
  0.3392   0.3426   0.3471   0.3546   0.3605   0.3732   0.3835   0.3924
  0.4020   0.4056   0.4154   0.4209   0.4289   0.4373   0.4425   0.4553
  0.4696   0.4842   0.4968   0.5111   0.5315   0.5414   0.5676   0.5896
  0.6373   0.6468   0.6512   0.6652   0.6737   0.6778   0.6882   0.6971
  0.6996   0.7022   0.7124   0.7202   0.7218   0.7311   0.7338   0.7352
  0.7498   0.7506   0.7547   0.7576   0.7604   0.7679   0.7759   0.7817
  0.7836   0.7871   0.7917   0.7970   0.7972   0.8052   0.8075   0.8316
  0.8526   0.8566   0.8724   0.8861   0.8940   0.8956   0.9111   0.9168
  0.9263   0.9474   0.9509   0.9640   0.9673   0.9741   0.9951   1.0137
  1.0241   1.0472   1.0620   1.0662   1.0861   1.1075   1.1227   1.1330
  1.1554   1.1609   1.1648   1.1671   1.1714   1.1772   1.1879   1.1935
  1.2087   1.2126   1.2223   1.2249   1.2397   1.2461   1.2586   1.2712
  1.2762   1.2861   1.2964   1.3014   1.3142   1.3283   1.3339   1.3357
  1.3510   1.3746   1.3816   1.3878   1.4103   1.4186   1.4242   1.4582
  1.4620   1.4636   1.4642   1.4755   1.4790   1.4817   1.4865   1.5271
  1.5398   1.5532   1.5580   1.5704   1.6059   1.6336   1.6677   1.7098
  1.7316   1.7414   1.7621   1.7644   1.7715   1.7931   1.8000   1.8109
  1.8232   1.8353   1.8451   1.8495   1.8729   1.8839   1.8901   1.9096
  1.9199   1.9325   1.9347   1.9440   1.9455   1.9508   1.9627   1.9732
  1.9903   2.0025   2.0272   2.0406   2.0435   2.0674   2.0876   2.1138
  2.1385   2.1462   2.1602   2.1899   2.2040   2.2254   2.2292   2.2494
  2.2691   2.2721   2.2861   2.2991   2.3077   2.3251   2.3275   2.3646
  2.3698   2.3736   2.3807   2.4088   2.4149   2.4284   2.4507   2.4633
  2.5010   2.5103   2.5217   2.5647   2.5939   2.6357   2.6463   2.6546
  2.6688   2.6830   2.6994   2.7328   2.7411   2.7565   2.7701   2.7996
  2.8073   2.8353   2.8602   2.8690   2.8873   2.9073   2.9340   2.9573
  2.9861   3.0576   3.0747   3.0841   3.1050   3.1350   3.2283   3.3402
  3.4852   3.5390   4.1997   4.2121   4.2348   4.2449   4.2717   4.3166
  4.3391   4.3420   4.3471   4.3736   4.3858   4.4178   4.4333   4.4511
  4.4681   4.4910   4.5807   4.6222   4.7088   4.9229
 --------------------------------------------------------------
 
          Ground-State Mulliken Net Atomic Charges

     Atom                 Charge (a.u.)
  ----------------------------------------
      1 C                     0.740054
      2 C                    -0.187475
      3 C                    -0.324553
      4 C                    -0.102325
      5 C                     0.343528
      6 C                    -0.180163
      7 C                     0.268953
      8 C                    -0.240703
      9 C                    -0.482431
     10 C                    -0.243649
     11 C                     0.422827
     12 C                    -0.436324
     13 C                    -0.387730
     14 C                    -0.580742
     15 C                    -1.063937
     16 C                     1.253760
     17 C                    -0.517055
     18 C                    -0.023433
     19 O                    -0.522269
     20 O                    -0.386791
     21 H                     0.184429
     22 H                     0.184940
     23 H                     0.183328
     24 H                     0.182490
     25 H                     0.184543
     26 H                     0.181512
     27 H                     0.183924
     28 H                     0.187912
     29 H                     0.191541
     30 H                     0.258692
     31 H                     0.237810
     32 H                     0.489336
  ----------------------------------------
  Sum of atomic charges =     0.000000

 -----------------------------------------------------------------
                    Cartesian Multipole Moments
 -----------------------------------------------------------------
    Charge (ESU x 10^10)
                -0.0000
    Dipole Moment (Debye)
         X      -1.4905      Y      -0.3474      Z      -1.0013
       Tot       1.8288
    Quadrupole Moments (Debye-Ang)
        XX    -112.2191     XY      -0.0724     YY    -103.9072
        XZ     -12.9688     YZ       1.8015     ZZ    -118.6871
    Octopole Moments (Debye-Ang^2)
       XXX     -58.2701    XXY      24.8179    XYY      -9.3694
       YYY     148.6765    XXZ     -31.2149    XYZ     -25.6793
       YYZ     -38.0408    XZZ      -4.4456    YZZ      55.1558
       ZZZ      -0.5991
    Hexadecapole Moments (Debye-Ang^3)
      XXXX   -3362.3332   XXXY   -1127.5712   XXYY   -1157.1554
      XYYY    -964.6091   YYYY   -3818.0492   XXXZ     -96.7050
      XXYZ    -229.3847   XYYZ     -61.9190   YYYZ    -277.8099
      XXZZ    -688.7601   XYZZ    -422.6887   YYZZ    -799.6396
      XZZZ     144.8689   YZZZ    -318.2103   ZZZZ    -632.8296
 -----------------------------------------------------------------
 Calculating analytic gradient of the SCF energy
 Gradient of SCF Energy
            1           2           3           4           5           6
    1  -0.0003031   0.0002121  -0.0006159   0.0006100   0.0007701  -0.0006641
    2  -0.0008968   0.0007204  -0.0002784   0.0004308  -0.0001427   0.0001540
    3  -0.0002604   0.0002121   0.0001053  -0.0000280  -0.0003449   0.0003251
            7           8           9          10          11          12
    1   0.0001922   0.0000758   0.0002512   0.0000855  -0.0007530   0.0006809
    2   0.0007075   0.0000067   0.0001533   0.0001106   0.0004718  -0.0002288
    3   0.0002450  -0.0000112  -0.0000082   0.0000056   0.0005096  -0.0003816
           13          14          15          16          17          18
    1  -0.0001660  -0.0001290  -0.0004575   0.0001249  -0.0002402   0.0008201
    2  -0.0007075   0.0000585   0.0002616   0.0000216  -0.0003667  -0.0015848
    3  -0.0002353   0.0000765   0.0002511  -0.0000875  -0.0002583  -0.0009060
           19          20          21          22          23          24
    1  -0.0009843   0.0000360  -0.0000696   0.0000483   0.0000907   0.0001402
    2   0.0001227   0.0003719   0.0000028   0.0000629  -0.0000220   0.0000788
    3  -0.0002600   0.0006676   0.0000254   0.0000197  -0.0000411  -0.0000142
           25          26          27          28          29          30
    1   0.0000371  -0.0000061   0.0000961  -0.0000340   0.0000410   0.0001239
    2   0.0000895   0.0000269   0.0000459   0.0001085   0.0003263  -0.0000878
    3   0.0000427  -0.0000015  -0.0000096   0.0000619   0.0000448   0.0000647
           31          32
    1  -0.0002384   0.0002249
    2  -0.0000104  -0.0000071
    3  -0.0001421   0.0003328
 Max gradient component =       1.585E-03
 RMS gradient           =       3.772E-04
 Gradient time:  CPU 112.47 s  wall 112.74 s
 Geometry Optimization Parameters
   NAtoms,    NIC,     NZ,  NCons,   NDum,   NFix, NCnnct, MaxDiis
       32     247       0       0       0       0       0       0

 Cartesian Hessian Update
 Hessian updated using BFGS update


** GEOMETRY OPTIMIZATION IN DELOCALIZED INTERNAL COORDINATES **
   Searching for a Minimum

   Optimization Cycle:   4

                       Coordinates (Angstroms)
     ATOM                X               Y               Z
      1  C         1.1272517265   -1.5939920649   -0.8204501845
      2  C         1.0124473483   -2.9213382614   -1.3580843903
      3  C         0.0037907434   -1.0114418264   -0.1562501107
      4  C        -1.2056428935   -1.7603739242   -0.0341891247
      5  C        -1.2919733959   -3.0802822477   -0.5788364320
      6  C        -0.1440727627   -3.6323155065   -1.2438534278
      7  C        -2.3357984163   -1.1975927571    0.6335490104
      8  C        -3.5172810065   -1.9514746139    0.7430698930
      9  C        -3.5924154369   -3.2363710429    0.2075282519
     10  C        -2.4934759789   -3.7960180729   -0.4457353510
     11  C         0.0917500232    0.3119357444    0.3841265500
     12  C        -1.0652566987    0.8441533003    1.0536271714
     13  C        -2.2189615933    0.1257501490    1.1726410808
     14  C         2.3088181291   -0.8473257224   -0.9220299441
     15  C         2.3885253173    0.4394418787   -0.3945623708
     16  C         1.3013881270    1.0368363202    0.2484684357
     17  C         1.4027373513    2.4417199560    0.8297292879
     18  C         2.6595592323    3.1857289717    0.4328009395
     19  O         2.5192398651    3.8177201685   -0.7611999158
     20  O         3.6822083832    3.2451647187    1.0823669767
     21  H         1.8754185646   -3.3508786587   -1.8618289273
     22  H        -0.2163153232   -4.6364510493   -1.6554431214
     23  H        -4.3761656075   -1.5201539786    1.2520671425
     24  H        -4.5127265266   -3.8070703398    0.2995584560
     25  H        -2.5600010359   -4.7999769433   -0.8588665255
     26  H        -1.0226778450    1.8406109907    1.4816147685
     27  H        -3.0763944375    0.5552808813    1.6859640161
     28  H         3.1740371487   -1.2804518125   -1.4182960029
     29  H         3.3258502201    0.9812558555   -0.4846009934
     30  H         1.3962096078    2.3991227140    1.9253633284
     31  H         0.5437805516    3.0411004910    0.5082718411
     32  H         3.3658476189    4.2675746825   -0.9464303277
   Point Group: c1    Number of degrees of freedom:    90


   Energy is   -843.680162471

 Hessian updated using BFGS update

 90 Hessian modes will be used to form the next step
  Hessian Eigenvalues:
     0.006744    0.008363    0.016357    0.017949    0.019113    0.019459
     0.019722    0.019908    0.020130    0.020774    0.021090    0.021819
     0.022542    0.022692    0.022791    0.022839    0.023029    0.023589
     0.023677    0.023789    0.023927    0.023972    0.024129    0.024199
     0.024967    0.025336    0.045297    0.050031    0.065559    0.101372
     0.133384    0.149995    0.159992    0.159999    0.160000    0.160000
     0.160000    0.160000    0.160000    0.160004    0.160517    0.221187
     0.223701    0.225194    0.225616    0.226887    0.235268    0.241163
     0.244267    0.246115    0.248293    0.249731    0.249966    0.251063
     0.251223    0.292450    0.314760    0.320938    0.340612    0.347138
     0.348100    0.354050    0.354068    0.354081    0.354109    0.354203
     0.354387    0.354607    0.355397    0.355483    0.356306    0.371477
     0.387389    0.399361    0.400717    0.406362    0.412886    0.435876
     0.442244    0.462613    0.464027    0.465155    0.474999    0.477406
     0.480528    0.533721    0.538273    0.543468    0.556950    1.009032

 Minimum search - taking simple RFO step
 Searching for Lamda that Minimizes Along All modes
 Value Taken    Lamda =  -0.00006177
 Step Taken.  Stepsize is  0.022759

                             Maximum     Tolerance    Cnvgd?
         Gradient           0.002116      0.000300      NO
         Displacement       0.011586      0.001200      NO
         Energy change     -0.000073      0.000001      NO


 New Cartesian Coordinates Obtained by Inverse Iteration

 Displacement from previous Coordinates is:  0.060413
 ----------------------------------------------------------------
             Standard Nuclear Orientation (Angstroms)
    I     Atom           X                Y                Z
 ----------------------------------------------------------------
    1      C       1.1284369440    -1.5962160137    -0.8204169714
    2      C       1.0117265082    -2.9250571911    -1.3578774788
    3      C       0.0055342958    -1.0128744213    -0.1567374110
    4      C      -1.2063053326    -1.7619300295    -0.0348222073
    5      C      -1.2943832304    -3.0818284680    -0.5789071843
    6      C      -0.1452840533    -3.6349074092    -1.2439679734
    7      C      -2.3362125791    -1.1985576607     0.6323090627
    8      C      -3.5188138601    -1.9512276915     0.7418872491
    9      C      -3.5956076379    -3.2364395132     0.2067912796
   10      C      -2.4966180115    -3.7969638244    -0.4460767732
   11      C       0.0954020917     0.3105375339     0.3833769842
   12      C      -1.0631888688     0.8432251093     1.0532500538
   13      C      -2.2174828503     0.1259314057     1.1716549869
   14      C       2.3109119131    -0.8510772929    -0.9218936634
   15      C       2.3924854124     0.4360157869    -0.3946562499
   16      C       1.3056914829     1.0362113072     0.2484573437
   17      C       1.4055285215     2.4431718366     0.8318277290
   18      C       2.6574174978     3.1963006718     0.4345489672
   19      O       2.5144961744     3.8290526775    -0.7582108933
   20      O       3.6829748861     3.2544323586     1.0793233661
   21      H       1.8747503265    -3.3552447741    -1.8611563577
   22      H      -0.2186481343    -4.6391768908    -1.6552441555
   23      H      -4.3773813428    -1.5188474463     1.2507707829
   24      H      -4.5166157616    -3.8063751521     0.2989487646
   25      H      -2.5638164316    -4.8010362417    -0.8591444642
   26      H      -1.0198704145     1.8394899710     1.4814687637
   27      H      -3.0751517186     0.5555977660     1.6846187867
   28      H       3.1755495904    -1.2860205259    -1.4178325805
   29      H       3.3314670836     0.9743218369    -0.4849170386
   30      H       1.4000774427     2.3988525098     1.9272123183
   31      H       0.5437825277     3.0399911999     0.5140425041
   32      H       3.3588485287     4.2805365753    -0.9485375401
 ----------------------------------------------------------------
 Nuclear Repulsion Energy =        1392.02579682 hartrees
 There are       68 alpha and       68 beta electrons
 Applying Cartesian multipole field
[...]
    I     Atom           X                Y                Z
 ----------------------------------------------------------------
    1      C      -0.3112005737    -1.7755123448     0.0438120447
    2      C      -1.4226003936    -2.6858260147    -0.0208651020
    3      C      -0.5631929668    -0.3689483908     0.0508672270
    4      C      -1.9115372266     0.1040098971     0.0011853032
    5      C      -2.9981292005    -0.8242587528    -0.0625742050
    6      C      -2.7061387465    -2.2324483195    -0.0729420213
    7      C      -2.1834580462     1.5059152018     0.0169977109
    8      C      -3.5162721333     1.9510062603    -0.0323999188
    9      C      -4.5685883984     1.0384577382    -0.0964622615
   10      C      -4.3140443005    -0.3338782560    -0.1109349933
   11      C       0.5272995072     0.5581967593     0.1097785937
   12      C       0.2133165987     1.9638717502     0.1296992007
   13      C      -1.0739938301     2.4133025904     0.0863117867
   14      C       1.0161092212    -2.2211525327     0.1044458464
   15      C       2.0727859954    -1.3150048252     0.1619246950
   16      C       1.8560701881     0.0663341303     0.1552774503
   17      C       3.0205613547     1.0506751507     0.2255832811
   18      C       4.3782171672     0.4200078180     0.0005315040
   19      O       4.7020443884     0.3678571777    -1.3172158665
   20      O       5.1162847968    -0.0005613641     0.8661804121
   21      H      -1.2150919437    -3.7536009156    -0.0267507234
   22      H      -3.5364750138    -2.9334188383    -0.1213273883
   23      H      -3.7192353017     3.0195460491    -0.0199964949
   24      H      -5.5939327531     1.3973418961    -0.1345010270
   25      H      -5.1404513348    -1.0396429902    -0.1589283691
   26      H       1.0184349995     2.6892972202     0.1873674463
   27      H      -1.2780731944     3.4816803541     0.1045893289
   28      H       1.2213122497    -3.2891770101     0.1082649305
   29      H       3.0858840401    -1.7019700868     0.2219589692
   30      H       3.0530436844     1.5267415559     1.2129199545
   31      H       2.8900628541     1.8371579866    -0.5247446148
   32      H       5.5766629354    -0.0608088890    -1.3819852271
 ----------------------------------------------------------------
 Molecular Point Group                 C1    NOp =  1
 Largest Abelian Subgroup              C1    NOp =  1
 Nuclear Repulsion Energy =        1392.17556184 hartrees
 There are       68 alpha and       68 beta electrons
 Requested basis set is 6-31+G(d)
 There are 124 shells and 404 basis functions

 Total QAlloc Memory Limit   8000 MB
 Mega-Array Size       188 MB
 MEM_STATIC part       192 MB
 A cutoff of  1.0D-11 yielded   5911 shell pairs
 There are     67066 function pairs
 Smallest overlap matrix eigenvalue = 8.62E-09

 Q-Chem warning in module stvman/mkSTV.C, line 318:

 Overlap eigenvalue is smaller than square root of threshold
 Use THRESH >= 12 to get rid of this warning

 Linear dependence detected in AO basis
 Tighter screening thresholds may be required for diffuse basis sets
 Use S2THRESH > 14 and THRESH = 14 in case of SCF convergence issues
 Number of orthogonalized atomic orbitals = 394
 Maximum deviation from orthogonality = 1.208E-10

 Scale SEOQF with 1.000000e-02/1.000000e-01/1.000000e-01

 Standard Electronic Orientation quadrupole field applied
 Nucleus-field energy     =     0.0000000248 hartrees
 Guess MOs from SCF MO coefficient file

 -----------------------------------------------------------------------
  General SCF calculation program by
  Eric Jon Sundstrom, Paul Horn, Yuezhi Mao, Dmitri Zuev, Alec White,
  David Stuck, Shaama M.S., Shane Yost, Joonho Lee, David Small,
  Daniel Levine, Susi Lehtola, Hugh Burton, Evgeny Epifanovsky,
  Bang C. Huynh
 -----------------------------------------------------------------------
 Exchange:     0.2000 Hartree-Fock + 0.0800 Slater + 0.7200 B88
 Correlation:  0.1900 VWN1RPA + 0.8100 LYP
 Using SG-1 standard quadrature grid
 A restricted SCF calculation will be
 performed using DIIS
 SCF converges when DIIS error is below 1.0e-08
 ---------------------------------------
  Cycle       Energy         DIIS error
 ---------------------------------------
    1    -843.6799126302      4.70e-09  
    2    -843.6799126302      9.75e-09  Convergence criterion met
 ---------------------------------------
 SCF time:   CPU 44.04s  wall 44.00s 
 SCF   energy in the final basis set =     -843.6799126302
 Total energy in the final basis set =     -843.6799126302
 
 Direct TDDFT/TDA calculation will be performed
 Exchange:     0.2000 Hartree-Fock + 0.0800 Slater + 0.7200 B88
 Correlation:  0.1900 VWN1RPA + 0.8100 LYP
 Using SG-1 standard quadrature grid
 Singlet excitation energies requested
 CIS energy converged when residual is below 10e- 6
 ---------------------------------------------------
 Iter    Rts Conv    Rts Left    Ttl Dev     Max Dev
 ---------------------------------------------------
   1         0          10      0.004771    0.000904
   2         0          10      0.001779    0.000558
   3         0          10      0.000423    0.000112
   4         0          10      0.000360    0.000245
   5         1           9      0.000095    0.000048
   6         5           5      0.000032    0.000015
   7         7           3      0.000016    0.000007
   8         8           2      0.000009    0.000004
   9         8           2      0.000004    0.000001
  10        10           0      0.000002    0.000000    Roots Converged
 ---------------------------------------------------
 
 ---------------------------------------------------
         TDDFT/TDA Excitation Energies              
 ---------------------------------------------------

 Excited state   1: excitation energy (eV) =    3.7182
 Total energy for state  1:                  -843.54327281 au
    Multiplicity: Singlet
    Trans. Mom.: -0.0203 X   0.0389 Y  -0.0012 Z
    Strength   :     0.0001749926
    D(   67) --> V(    1) amplitude = -0.6808
    D(   68) --> V(    2) amplitude =  0.7288

 Excited state   2: excitation energy (eV) =    3.7756
 Total energy for state  2:                  -843.54116130 au
    Multiplicity: Singlet
    Trans. Mom.: -1.9589 X   0.5473 Y  -0.0755 Z
    Strength   :     0.3831890467
    D(   67) --> V(    2) amplitude =  0.3622
    D(   68) --> V(    1) amplitude =  0.9048

 Excited state   3: excitation energy (eV) =    4.2979
 Total energy for state  3:                  -843.52196635 au
    Multiplicity: Singlet
    Trans. Mom.:  0.1910 X  -0.1013 Y   0.0080 Z
    Strength   :     0.0049306144
    D(   66) --> V(    1) amplitude = -0.3246
    D(   68) --> V(    3) amplitude =  0.9333

 Excited state   4: excitation energy (eV) =    4.5916
 Total energy for state  4:                  -843.51117503 au
    Multiplicity: Singlet
    Trans. Mom.:  0.0359 X   0.1901 Y  -0.0368 Z
    Strength   :     0.0043624658
    D(   68) --> V(    4) amplitude =  0.9722

 Excited state   5: excitation energy (eV) =    4.6081
 Total energy for state  5:                  -843.51056881 au
    Multiplicity: Singlet
    Trans. Mom.: -0.0503 X  -0.0276 Y  -0.0057 Z
    Strength   :     0.0003747337
    D(   66) --> V(    1) amplitude =  0.9272
    D(   68) --> V(    3) amplitude =  0.3132

 Excited state   6: excitation energy (eV) =    4.7570
 Total energy for state  6:                  -843.50509792 au
    Multiplicity: Singlet
    Trans. Mom.:  0.6965 X   1.5807 Y   0.0570 Z
    Strength   :     0.3481332651
    D(   65) --> V(    3) amplitude =  0.2474
    D(   66) --> V(    6) amplitude =  0.2271
    D(   67) --> V(    1) amplitude =  0.6561
    D(   68) --> V(    2) amplitude =  0.6061

 Excited state   7: excitation energy (eV) =    4.9167
 Total energy for state  7:                  -843.49922792 au
    Multiplicity: Singlet
    Trans. Mom.:  0.0432 X   0.2077 Y  -0.0072 Z
    Strength   :     0.0054300257
    D(   65) --> V(    1) amplitude = -0.6106
    D(   68) --> V(    6) amplitude =  0.7517

 Excited state   8: excitation energy (eV) =    4.9986
 Total energy for state  8:                  -843.49621685 au
    Multiplicity: Singlet
    Trans. Mom.: -0.0057 X   0.0954 Y   0.1062 Z
    Strength   :     0.0025007884
    D(   68) --> V(    5) amplitude =  0.9210
    D(   68) --> V(    7) amplitude = -0.3421

 Excited state   9: excitation energy (eV) =    5.1763
 Total energy for state  9:                  -843.48968554 au
    Multiplicity: Singlet
    Trans. Mom.: -0.1001 X  -0.1639 Y   0.0031 Z
    Strength   :     0.0046772480
    D(   66) --> V(    2) amplitude = -0.6156
    D(   67) --> V(    3) amplitude =  0.7330

 Excited state  10: excitation energy (eV) =    5.1837
 Total energy for state 10:                  -843.48941614 au
    Multiplicity: Singlet
    Trans. Mom.: -0.0287 X  -0.0935 Y  -0.0576 Z
    Strength   :     0.0016360556
    D(   68) --> V(    5) amplitude = -0.3267
    D(   68) --> V(    7) amplitude = -0.9009
 
 ---------------------------------------------------
 Calculating Relaxed Density
 ---------------------------------------------------
 Iter    Rts Conv    Rts Left    Ttl Dev     Max Dev
 ---------------------------------------------------
   1         0          10      0.001707    0.000446
   2         0          10      0.000515    0.000137
   3         0          10      0.000090    0.000021
   4         3           7      0.000015    0.000004
   5        10           0      0.000000    0.000000    Roots Converged
 ---------------------------------------------------
  SETman timing summary (seconds)
  CPU time              1179.67s
  System time              0.00s
  Wall time             1182.45s
 
 --------------------------------------------------------------
 
                    Orbital Energies (a.u.)
 --------------------------------------------------------------
 
 Alpha MOs
 -- Occupied --
-19.2183 -19.1627 -10.3411 -10.2212 -10.2210 -10.2144 -10.2124 -10.2116
-10.2115 -10.2109 -10.2104 -10.2065 -10.2057 -10.2043 -10.2042 -10.2036
-10.2035 -10.2033 -10.2033 -10.2027  -1.1246  -1.0347  -0.9033  -0.8653
 -0.8423  -0.8167  -0.7922  -0.7641  -0.7549  -0.7388  -0.7125  -0.6463
 -0.6395  -0.6358  -0.6236  -0.6071  -0.5568  -0.5324  -0.5266  -0.5225
 -0.5052  -0.5001  -0.4872  -0.4837  -0.4549  -0.4521  -0.4433  -0.4419
 -0.4387  -0.4223  -0.4160  -0.4103  -0.4078  -0.4061  -0.3974  -0.3782
 -0.3725  -0.3680  -0.3504  -0.3407  -0.3393  -0.3296  -0.3062  -0.2947
 -0.2819  -0.2660  -0.2421  -0.2084
 -- Virtual --
 -0.0717  -0.0396  -0.0215  -0.0180  -0.0057  -0.0015   0.0040   0.0096
  0.0166   0.0228   0.0322   0.0365   0.0393   0.0425   0.0461   0.0551
  0.0588   0.0620   0.0636   0.0676   0.0718   0.0773   0.0889   0.0893
  0.0937   0.0989   0.1027   0.1110   0.1119   0.1186   0.1262   0.1314
  0.1326   0.1374   0.1379   0.1435   0.1464   0.1531   0.1543   0.1628
  0.1679   0.1698   0.1736   0.1759   0.1784   0.1810   0.1842   0.1872
  0.1909   0.1932   0.1968   0.2031   0.2047   0.2093   0.2133   0.2182
  0.2231   0.2240   0.2287   0.2328   0.2359   0.2420   0.2440   0.2459
  0.2480   0.2519   0.2585   0.2606   0.2639   0.2658   0.2683   0.2708
  0.2757   0.2808   0.2826   0.2915   0.2923   0.2951   0.2971   0.2987
  0.3010   0.3055   0.3110   0.3137   0.3163   0.3204   0.3244   0.3314
  0.3397   0.3426   0.3472   0.3555   0.3607   0.3750   0.3822   0.3933
  0.4004   0.4055   0.4151   0.4223   0.4283   0.4369   0.4425   0.4543
  0.4690   0.4832   0.4948   0.5098   0.5307   0.5413   0.5669   0.5891
  0.6374   0.6460   0.6514   0.6649   0.6736   0.6779   0.6881   0.6967
  0.6995   0.7014   0.7114   0.7198   0.7227   0.7303   0.7341   0.7357
  0.7492   0.7505   0.7540   0.7564   0.7603   0.7679   0.7765   0.7816
  0.7831   0.7876   0.7911   0.7970   0.7974   0.8063   0.8077   0.8317
  0.8517   0.8566   0.8721   0.8866   0.8927   0.8947   0.9114   0.9174
  0.9267   0.9475   0.9504   0.9641   0.9677   0.9741   0.9954   1.0129
  1.0236   1.0476   1.0606   1.0660   1.0857   1.1070   1.1219   1.1329
  1.1555   1.1586   1.1649   1.1685   1.1716   1.1772   1.1878   1.1930
  1.2083   1.2114   1.2219   1.2244   1.2387   1.2458   1.2582   1.2704
  1.2766   1.2848   1.2958   1.3021   1.3136   1.3282   1.3306   1.3363
  1.3507   1.3721   1.3805   1.3865   1.4104   1.4216   1.4263   1.4588
  1.4618   1.4636   1.4640   1.4759   1.4791   1.4820   1.4866   1.5272
  1.5386   1.5517   1.5570   1.5689   1.6028   1.6329   1.6675   1.7094
  1.7326   1.7416   1.7602   1.7639   1.7704   1.7922   1.7988   1.8097
  1.8221   1.8363   1.8446   1.8496   1.8721   1.8800   1.8882   1.9078
  1.9191   1.9316   1.9341   1.9437   1.9445   1.9505   1.9631   1.9726
  1.9893   2.0007   2.0270   2.0399   2.0419   2.0671   2.0853   2.1128
  2.1382   2.1456   2.1599   2.1882   2.2050   2.2254   2.2289   2.2495
  2.2683   2.2717   2.2859   2.2981   2.3076   2.3246   2.3256   2.3640
  2.3691   2.3728   2.3805   2.4076   2.4138   2.4277   2.4495   2.4603
  2.5004   2.5100   2.5205   2.5634   2.5935   2.6358   2.6455   2.6538
  2.6689   2.6823   2.6986   2.7318   2.7420   2.7554   2.7682   2.7984
  2.8057   2.8346   2.8592   2.8696   2.8856   2.9053   2.9330   2.9570
  2.9850   3.0577   3.0735   3.0822   3.1037   3.1343   3.2267   3.3385
  3.4821   3.5376   4.2004   4.2106   4.2335   4.2443   4.2706   4.3155
  4.3388   4.3418   4.3468   4.3751   4.3852   4.4178   4.4334   4.4509
  4.4682   4.4911   4.5798   4.6210   4.7074   4.9214
 --------------------------------------------------------------
 
          Ground-State Mulliken Net Atomic Charges

     Atom                 Charge (a.u.)
  ----------------------------------------
      1 C                     0.732382
      2 C                    -0.182899
      3 C                    -0.319482
      4 C                    -0.097919
      5 C                     0.341225
      6 C                    -0.182207
      7 C                     0.269531
      8 C                    -0.245233
      9 C                    -0.476324
     10 C                    -0.249501
     11 C                     0.415651
     12 C                    -0.461238
     13 C                    -0.384276
     14 C                    -0.583138
     15 C                    -1.053596
     16 C                     1.259760
     17 C                    -0.518334
     18 C                    -0.002478
     19 O                    -0.523226
     20 O                    -0.387315
     21 H                     0.184387
     22 H                     0.184851
     23 H                     0.183407
     24 H                     0.182534
     25 H                     0.184526
     26 H                     0.180616
     27 H                     0.183822
     28 H                     0.188035
     29 H                     0.192558
     30 H                     0.258234
     31 H                     0.235833
     32 H                     0.489815
  ----------------------------------------
  Sum of atomic charges =     0.000000

 -----------------------------------------------------------------
                    Cartesian Multipole Moments
 -----------------------------------------------------------------
    Charge (ESU x 10^10)
                -0.0000
    Dipole Moment (Debye)
         X      -1.2728      Y       0.4210      Z      -1.2190
       Tot       1.8120
    Quadrupole Moments (Debye-Ang)
        XX    -108.7770     XY       0.7559     YY    -101.6685
        XZ      -8.6934     YZ       1.8722     ZZ    -124.1835
    Octopole Moments (Debye-Ang^2)
       XXX     -15.1326    XXY      -0.1905    XYY       7.1861
       YYY      -0.3079    XXZ     -66.9826    XYZ       7.1147
       YYZ       0.5620    XZZ      19.2462    YZZ       1.1254
       ZZZ      -3.1324
    Hexadecapole Moments (Debye-Ang^3)
      XXXX   -5677.9267   XXXY     -15.7870   XXYY   -1195.3149
      XYYY      -5.6735   YYYY   -1582.2155   XXXZ    -400.3781
      XXYZ      39.6995   XYYZ       3.6042   YYYZ       1.9884
      XXZZ   -1131.8160   XYZZ       1.5174   YYZZ    -365.9262
      XZZZ     -24.6030   YZZZ       3.0553   ZZZZ    -252.8215
 -----------------------------------------------------------------
 Calculating analytic gradient of the CIS energy
 CIS relaxed dipole moment
            1
    1  -0.4951380
    2   0.1334465
    3  -0.4791475
	Magnitude:	 0.702 au	 1.784 Debye
 CIS 1 State Energy is -843.5432728077
 Gradient of the state energy (including CIS Excitation Energy)
            1           2           3           4           5           6
    1   0.0029780  -0.0152178   0.0325572  -0.0321191   0.0081555   0.0123513
    2   0.0160201   0.0006986  -0.0110583   0.0121552   0.0139538  -0.0089350
    3   0.0005926  -0.0007430   0.0011838  -0.0010582   0.0004893   0.0004409
            7           8           9          10          11          12
    1  -0.0019039  -0.0062220   0.0138417   0.0010642  -0.0083365  -0.0127215
    2  -0.0171105  -0.0079267  -0.0040406   0.0095587  -0.0149260   0.0086721
    3  -0.0004497  -0.0003815   0.0004806   0.0002544  -0.0005752  -0.0005610
           13          14          15          16          17          18
    1   0.0152536   0.0046817  -0.0135794  -0.0022384   0.0015255  -0.0000229
    2  -0.0009095   0.0081106   0.0060240  -0.0119836   0.0024070   0.0006021
    3   0.0006926   0.0002850  -0.0008079   0.0000760   0.0005360   0.0002698
           19          20          21          22          23          24
    1   0.0000734  -0.0000250  -0.0001560   0.0000044  -0.0001062  -0.0003601
    2  -0.0001282  -0.0000535  -0.0002099  -0.0001503   0.0002550   0.0001252
    3  -0.0000628  -0.0001166  -0.0000298  -0.0000078  -0.0000152  -0.0000235
           25          26          27          28          29          30
    1  -0.0003518   0.0000471   0.0001656   0.0000678   0.0002948   0.0001203
    2  -0.0000970   0.0002293   0.0002258  -0.0002687  -0.0003927  -0.0004132
    3  -0.0000036   0.0000266   0.0000211  -0.0000080  -0.0000784  -0.0006757
           31          32
    1   0.0002227  -0.0000440
    2  -0.0004217  -0.0000119
    3   0.0001861   0.0000632
 Gradient time:  CPU 193.18 s  wall 193.66 s
Archival summary:
1\1\qnode0211\JobtypUnspecified\ProcedureUnspecified\6-31+G*\21812\ckw3571\WedJun2214:59:002022WedJun2214:59:002022\0\\#,JobtypUnspecified,ProcedureUnspecified,6-31+G*,\\0,1\C\C,1,1.42898\C,2,1.40144,1,118.673\H,3,1.08757,2,119.415,1,179.488,0\C,3,1.39319,2,120.884,1,-0.406837,0\H,5,1.08615,3,118.555,2,179.154,0\C,5,1.39825,3,121.654,2,-0.303074,0\C,7,1.41761,5,119.222,3,0.991127,0\C,1,1.42975,2,119.455,3,-179.466,0\C,9,1.42812,1,120.259,2,179.553,0\C,10,1.40604,9,119.396,1,-179.993,0\H,11,1.08772,10,119.173,9,179.99,0\C,11,1.39435,10,120.653,9,-0.00481294,0\H,13,1.087,11,119.83,10,-179.978,0\C,13,1.39582,11,120.418,10,0.0768866,0\H,15,1.08782,13,119.986,11,179.872,0\C,15,1.40515,13,120.9,11,-0.0501621,0\C,10,1.43495,9,118.298,1,-0.126803,0\H,18,1.08785,10,118.476,9,-179.636,0\C,18,1.3642,10,121.521,9,0.329745,0\H,20,1.08526,18,118.785,10,-179.656,0\C,2,1.43808,1,119.145,3,179.812,0\H,22,1.08777,2,118.306,1,179.923,0\C,22,1.36225,2,121.28,1,-0.11581,0\H,24,1.08773,22,120.43,2,-179.985,0\C,7,1.5264,5,121.239,3,179.693,0\H,26,1.0948,7,109.923,5,133.636,0\H,26,1.0966,7,110.122,5,-107.513,0\C,26,1.51381,7,114.123,5,12.5077,0\O,29,1.21284,26,125.742,7,-92.6913,0\O,29,1.35796,26,111.971,7,87.2613,0\H,31,0.97617,29,107.152,26,-179.107,0\\\@

 Total job time:  1420.97s(wall), 1417.50s(cpu) 
 Wed Jun 22 14:59:00 2022

        *************************************************************
        *                                                           *
        *  Thank you very much for using Q-Chem.  Have a nice day.  *
        *                                                           *
        *************************************************************


remove work dirs /tmp/qchem200596.0 -- /tmp/qchem200596.-1
rm -rf /tmp/qchem200596
