
Running Job 1 of 1 PAA_es2vib_gsGeo.in
qchem PAA_es2vib_gsGeo.in_60408.0 /tmp/qchem60408/ 0
/software/QChem/5.3/exe/qcprog.exe_s PAA_es2vib_gsGeo.in_60408.0 /tmp/qchem60408/
                  Welcome to Q-Chem
     A Quantum Leap Into The Future Of Chemistry


 Q-Chem 5.3, Q-Chem, Inc., Pleasanton, CA (2020)

 License issued to: SRG Mark Ratner, Northwestern University

 Yihan Shao,  Zhengting Gan,  E. Epifanovsky,  A. T. B. Gilbert,  M. Wormit,  
 J. Kussmann,  A. W. Lange,  A. Behn,  Jia Deng,  Xintian Feng,  D. Ghosh,  
 M. Goldey,  P. R. Horn,  L. D. Jacobson,  I. Kaliman,  T. Kus,  A. Landau,  
 Jie Liu,  E. I. Proynov,  R. M. Richard,  R. P. Steele,  E. J. Sundstrom,  
 H. L. Woodcock III,  P. M. Zimmerman,  D. Zuev,  B. Alam,  B. Albrecht,  
 A. Aldossary,  E. Alguire,  S. A. Baeppler,  D. Barton,  Z. Benda,  
 Y. A. Bernard,  E. J. Berquist,  K. B. Bravaya,  H. Burton,  K. Carter-Fenk,  
 D. Casanova,  Chun-Min Chang,  Yunqing Chen,  A. Chien,  K. D. Closser,  
 M. P. Coons,  S. Coriani,  S. Dasgupta,  A. L. Dempwolff,  M. Diedenhofen,  
 Hainam Do,  R. G. Edgar,  Po-Tung Fang,  S. Faraji,  S. Fatehi,  
 Qingguo Feng,  J. Fosso-Tande,  J. Gayvert,  Qinghui Ge,  A. Ghysels,  
 G. Gidofalvi,  J. Gomes,  J. Gonthier,  S. Gulania,  A. Gunina,  D. Hait,  
 M. W. D. Hanson-Heine,  S. Hammes-Schiffer,  P. H. P. Harbach,  
 A. W. Hauser,  M. F. Herbst,  J. E. Herr,  E. G. Hohenstein,  Z. C. Holden,  
 S. Houck,  Kerwin Hui,  B. C. Huynh,  M. Ivanov,  T.-C. Jagau,  Hyunjun Ji,  
 B. Kaduk,  K. Khistyaev,  Jaehoon Kim,  P. Klunzinger,  K. Koh,  
 D. Kosenkov,  L. Koulias,  T. Kowalczyk,  C. M. Krauter,  A. Kunitsa,  
 Ka Un Lao,  A. Laurent,  K. V. Lawler,  Joonho Lee,  D. Lefrancois,  
 S. Lehtola,  D. S. Levine,  Yi-Pei Li,  You-Sheng Lin,  Fenglai Liu,  
 Kuan-Yu Liu,  E. Livshits,  M. Loipersberger,  A. Luenser,  P. Manohar,  
 E. Mansoor,  S. F. Manzer,  Shan-Ping Mao,  Yuezhi Mao,  N. Mardirossian,  
 A. V. Marenich,  T. Markovich,  L. A. Martinez-Martinez,  S. A. Maurer,  
 N. J. Mayhall,  S. C. McKenzie,  J.-M. Mewes,  P. Morgante,  A. F. Morrison,  
 J. W. Mullinax,  K. Nanda,  T. S. Nguyen-Beck,  R. Olivares-Amaya,  
 K. J. Oosterbaan,  J. A. Parkhill,  S. K. Paul,  F. Pavosevic,  Zheng Pei,  
 T. M. Perrine,  F. Plasser,  P. Pokhilko,  S. Prager,  A. Prociuk,  
 E. Ramos,  B. Rana,  D. R. Rehn,  F. Rob,  E. Rossomme,  M. Scheurer,  
 M. Schneider,  N. Sergueev,  S. M. Sharada,  S. Sharma,  W. Skomorowski,  
 D. W. Small,  T. Stauch,  C. J. Stein,  T. Stein,  Yu-Chuan Su,  
 S. P. Veccham,  Zhen Tao,  A. J. W. Thom,  A. Tkatchenko,  T. Tsuchimochi,  
 N. M. Tubman,  L. Vogt,  M. L. Vidal,  O. Vydrov,  M. A. Watson,  J. Wenzel,  
 M. de Wergifosse,  T. A. Wesolowski,  A. White,  J. Witte,  A. Yamada,  
 Jun Yang,  K. Yao,  S. Yeganeh,  S. R. Yost,  Zhi-Qiang You,  A. Zech,  
 Igor Ying Zhang,  Xing Zhang,  Yan Zhao,  Ying Zhu,  B. R. Brooks,  
 G. K. L. Chan,  C. J. Cramer,  M. S. Gordon,  W. J. Hehre,  A. Klamt,  
 M. W. Schmidt,  C. D. Sherrill,  D. G. Truhlar,  A. Aspuru-Guzik,  R. Baer,  
 A. T. Bell,  N. A. Besley,  Jeng-Da Chai,  A. E. DePrince, III,  
 R. A. DiStasio Jr.,  A. Dreuw,  B. D. Dunietz,  T. R. Furlani,  
 Chao-Ping Hsu,  Yousung Jung,  Jing Kong,  D. S. Lambrecht,  WanZhen Liang,  
 C. Ochsenfeld,  V. A. Rassolov,  L. V. Slipchenko,  J. E. Subotnik,  
 T. Van Voorhis,  J. M. Herbert,  A. I. Krylov,  P. M. W. Gill,  M. Head-Gordon

 Contributors to earlier versions of Q-Chem not listed above: 
 R. D. Adamson,  B. Austin,  J. Baker,  G. J. O. Beran,  K. Brandhorst,  
 S. T. Brown,  E. F. C. Byrd,  A. K. Chakraborty,  C.-L. Cheng,  
 Siu Hung Chien,  D. M. Chipman,  D. L. Crittenden,  H. Dachsel,  
 R. J. Doerksen,  A. D. Dutoi,  L. Fusti-Molnar,  W. A. Goddard III,  
 A. Golubeva-Zadorozhnaya,  S. R. Gwaltney,  G. Hawkins,  A. Heyden,  
 S. Hirata,  G. Kedziora,  F. J. Keil,  C. Kelley,  Jihan Kim,  R. A. King,  
 R. Z. Khaliullin,  P. P. Korambath,  W. Kurlancheek,  A. M. Lee,  M. S. Lee,  
 S. V. Levchenko,  Ching Yeh Lin,  D. Liotard,  R. C. Lochan,  I. Lotan,  
 P. E. Maslen,  N. Nair,  D. P. O'Neill,  D. Neuhauser,  E. Neuscamman,  
 C. M. Oana,  R. Olson,  B. Peters,  R. Peverati,  P. A. Pieniazek,  
 Y. M. Rhee,  J. Ritchie,  M. A. Rohrdanz,  E. Rosta,  N. J. Russ,  
 H. F. Schaefer III,  N. E. Schultz,  N. Shenvi,  A. C. Simmonett,  A. Sodt,  
 D. Stuck,  K. S. Thanthiriwatte,  V. Vanovschi,  Tao Wang,  A. Warshel,  
 C. F. Williams,  Q. Wu,  X. Xu,  W. Zhang

 Please cite Q-Chem as follows:
 Y. Shao et al., Mol. Phys. 113, 184-215 (2015)
 DOI: 10.1080/00268976.2014.952696

 Q-Chem 5.3.1 for Intel X86 EM64T Linux

 Parts of Q-Chem use Armadillo 9.800.1 (Horizon Scraper).
 http://arma.sourceforge.net/

 Q-Chem begins on Wed Nov  9 22:24:47 2022  

Host: 
0

     Scratch files written to /tmp/qchem60408//
 Aug2920 |scratch|qcdevops|jenkins|workspace|build_RNUM 4082   
Processing $rem in /software/QChem/5.3/config/preferences:
Processing $rem in /home/ckw3571/.qchemrc:

Checking the input file for inconsistencies... 	...done.

--------------------------------------------------------------
User input:
--------------------------------------------------------------
$molecule
0 1
C   -0.3112006   -1.7755123    0.0438120
C   -1.4226004   -2.6858260   -0.0208651
C   -0.5631930   -0.3689484    0.0508672
C   -1.9115372    0.1040099    0.0011853
C   -2.9981292   -0.8242588   -0.0625742
C   -2.7061387   -2.2324483   -0.0729420
C   -2.1834580    1.5059152    0.0169977
C   -3.5162721    1.9510063   -0.0323999
C   -4.5685884    1.0384577   -0.0964623
C   -4.3140443   -0.3338783   -0.1109350
C    0.5272995    0.5581968    0.1097786
C    0.2133166    1.9638718    0.1296992
C   -1.0739938    2.4133026    0.0863118
C    1.0161092   -2.2211525    0.1044458
C    2.0727860   -1.3150048    0.1619247
C    1.8560702    0.0663341    0.1552775
C    3.0205614    1.0506752    0.2255833
C    4.3782172    0.4200078    0.0005315
O    4.7020444    0.3678572   -1.3172159
O    5.1162848   -0.0005614    0.8661804
H   -1.2150919   -3.7536009   -0.0267507
H   -3.5364750   -2.9334188   -0.1213274
H   -3.7192353    3.0195460   -0.0199965
H   -5.5939328    1.3973419   -0.1345010
H   -5.1404513   -1.0396430   -0.1589284
H    1.0184350    2.6892972    0.1873674
H   -1.2780732    3.4816804    0.1045893
H    1.2213122   -3.2891770    0.1082649
H    3.0858840   -1.7019701    0.2219590
H    3.0530437    1.5267416    1.2129200
H    2.8900629    1.8371580   -0.5247446
H    5.5766629   -0.0608089   -1.3819852
$end

$rem
BASIS  =  6-31+G*
CIS_MOMENTS  =  1
CIS_N_ROOTS  =  7
CIS_STATE_DERIVATIVE  =  2
CIS_TRIPLETS  =  0
EXCHANGE  =  B3LYP
JOB_TYPE  =  Frequency
VIBMAN_PRINT = 4
$end

--------------------------------------------------------------
 ----------------------------------------------------------------
             Standard Nuclear Orientation (Angstroms)
    I     Atom           X                Y                Z
 ----------------------------------------------------------------
    1      C      -0.3112006158    -1.7755123046     0.0438120080
    2      C      -1.4226004194    -2.6858260003    -0.0208650903
    3      C      -0.5631930103    -0.3689484036     0.0508672051
    4      C      -1.9115372084     0.1040099016     0.0011853040
    5      C      -2.9981292121    -0.8242587942    -0.0625741942
    6      C      -2.7061387176    -2.2324482954    -0.0729419913
    7      C      -2.1834580029     1.5059152027     0.0169977011
    8      C      -3.5162721012     1.9510063078    -0.0323998999
    9      C      -4.5685884047     1.0384577118    -0.0964622982
   10      C      -4.3140443101    -0.3338782892    -0.1109349954
   11      C       0.5272994934     0.5581967923     0.1097786033
   12      C       0.2133165989     1.9638717935     0.1296992004
   13      C      -1.0739937994     2.4133025985     0.0863117994
   14      C       1.0161091825    -2.2211525097     0.1044458090
   15      C       2.0727859860    -1.3150048137     0.1619247073
   16      C       1.8560701914     0.0663340872     0.1552775045
   17      C       3.0205613953     1.0506751827     0.2255833026
   18      C       4.3782171928     0.4200077769     0.0005315040
   19      O       4.7020443928     0.3678571730    -1.3172158958
   20      O       5.1162847911    -0.0005614242     0.8661804050
   21      H      -1.2150919235    -3.7536009012    -0.0267506881
   22      H      -3.5364750203    -2.9334187923    -0.1213273900
   23      H      -3.7192352970     3.0195460087    -0.0199965021
   24      H      -5.5939328033     1.3973419158    -0.1345009990
   25      H      -5.1404513129    -1.0396429860    -0.1589283940
   26      H       1.0184350017     2.6892971905     0.1873673990
   27      H      -1.2780731952     3.4816803993     0.1045892972
   28      H       1.2213121783    -3.2891770105     0.1082649112
   29      H       3.0858839845    -1.7019701175     0.2219590082
   30      H       3.0530436970     1.5267415846     1.2129200016
   31      H       2.8900628984     1.8371579817    -0.5247445990
   32      H       5.5766628911    -0.0608089306    -1.3819851949
 ----------------------------------------------------------------
 Molecular Point Group                 C1    NOp =  1
 Largest Abelian Subgroup              C1    NOp =  1
 Nuclear Repulsion Energy =        1392.17556117 hartrees
 There are       68 alpha and       68 beta electrons
 Requested basis set is 6-31+G(d)
 There are 124 shells and 404 basis functions

 Total QAlloc Memory Limit   8000 MB
 Mega-Array Size       188 MB
 MEM_STATIC part       192 MB
 A cutoff of  1.0D-11 yielded   5911 shell pairs
 There are     67066 function pairs
 Smallest overlap matrix eigenvalue = 8.62E-09

 Q-Chem warning in module stvman/mkSTV.C, line 318:

 Overlap eigenvalue is smaller than square root of threshold
 Use THRESH >= 12 to get rid of this warning

 Linear dependence detected in AO basis
 Tighter screening thresholds may be required for diffuse basis sets
 Use S2THRESH > 14 and THRESH = 14 in case of SCF convergence issues
 Number of orthogonalized atomic orbitals = 394
 Maximum deviation from orthogonality = 2.684E-10
 Guess from superposition of atomic densities
 Warning:  Energy on first SCF cycle will be non-variational
 SAD guess density has 136.000000 electrons

 -----------------------------------------------------------------------
  General SCF calculation program by
  Eric Jon Sundstrom, Paul Horn, Yuezhi Mao, Dmitri Zuev, Alec White,
  David Stuck, Shaama M.S., Shane Yost, Joonho Lee, David Small,
  Daniel Levine, Susi Lehtola, Hugh Burton, Evgeny Epifanovsky,
  Bang C. Huynh
 -----------------------------------------------------------------------
 Exchange:     0.2000 Hartree-Fock + 0.0800 Slater + 0.7200 B88
 Correlation:  0.1900 VWN1RPA + 0.8100 LYP
 Using SG-1 standard quadrature grid
 A restricted SCF calculation will be
 performed using DIIS
 SCF converges when DIIS error is below 1.0e-08
 ---------------------------------------
  Cycle       Energy         DIIS error
 ---------------------------------------
    1    -848.5909166877      3.74e-02  
    2    -843.4077261118      3.78e-03  
    3    -843.1815037432      5.54e-03  
    4    -843.6413267358      1.54e-03  
    5    -843.6778368552      3.66e-04  
    6    -843.6794339714      1.68e-04  
    7    -843.6798865082      3.44e-05  
    8    -843.6798999460      2.35e-05  
    9    -843.6799124772      2.72e-06  
   10    -843.6799126081      1.08e-06  
   11    -843.6799126269      4.37e-07  
   12    -843.6799126308      1.39e-07  
   13    -843.6799126312      5.68e-08  
   14    -843.6799126313      1.43e-08  
   15    -843.6799126313      5.24e-09  Convergence criterion met
 ---------------------------------------
 SCF time:   CPU 326.94s  wall 328.00s 
 SCF   energy in the final basis set =     -843.6799126313
 Total energy in the final basis set =     -843.6799126313
 
 Direct TDDFT/TDA calculation will be performed
 Exchange:     0.2000 Hartree-Fock + 0.0800 Slater + 0.7200 B88
 Correlation:  0.1900 VWN1RPA + 0.8100 LYP
 Using SG-1 standard quadrature grid
 Singlet excitation energies requested
 CIS energy converged when residual is below 10e- 6
 ---------------------------------------------------
 Iter    Rts Conv    Rts Left    Ttl Dev     Max Dev
 ---------------------------------------------------
   1         0           7      0.003500    0.000871
   2         0           7      0.001475    0.000837
   3         0           7      0.000435    0.000202
   4         0           7      0.000241    0.000129
   5         1           6      0.000121    0.000078
   6         3           4      0.000061    0.000044
   7         5           2      0.000038    0.000028
   8         5           2      0.000128    0.000123
   9         5           2      0.000048    0.000046
  10         6           1      0.000021    0.000019
  11         6           1      0.000010    0.000008
  12         6           1      0.000006    0.000004
  13         6           1      0.000003    0.000002
  14         7           0      0.000002    0.000000    Roots Converged
 ---------------------------------------------------
 
 ---------------------------------------------------
         TDDFT/TDA Excitation Energies              
 ---------------------------------------------------

 Excited state   1: excitation energy (eV) =    3.7182
 Total energy for state  1:                  -843.54327281 au
    Multiplicity: Singlet
    Trans. Mom.: -0.0202 X   0.0389 Y  -0.0011 Z
    Strength   :     0.0001753880
    D(   67) --> V(    1) amplitude = -0.6808
    D(   68) --> V(    2) amplitude =  0.7288

 Excited state   2: excitation energy (eV) =    3.7756
 Total energy for state  2:                  -843.54116127 au
    Multiplicity: Singlet
    Trans. Mom.: -1.9587 X   0.5473 Y  -0.0755 Z
    Strength   :     0.3831330578
    D(   67) --> V(    2) amplitude =  0.3622
    D(   68) --> V(    1) amplitude =  0.9047

 Excited state   3: excitation energy (eV) =    4.2979
 Total energy for state  3:                  -843.52196642 au
    Multiplicity: Singlet
    Trans. Mom.:  0.1911 X  -0.1013 Y   0.0081 Z
    Strength   :     0.0049339982
    D(   66) --> V(    1) amplitude = -0.3246
    D(   68) --> V(    3) amplitude =  0.9333

 Excited state   4: excitation energy (eV) =    4.5916
 Total energy for state  4:                  -843.51117491 au
    Multiplicity: Singlet
    Trans. Mom.:  0.0359 X   0.1900 Y  -0.0368 Z
    Strength   :     0.0043585190
    D(   68) --> V(    4) amplitude =  0.9722

 Excited state   5: excitation energy (eV) =    4.6081
 Total energy for state  5:                  -843.51056876 au
    Multiplicity: Singlet
    Trans. Mom.: -0.0500 X  -0.0275 Y  -0.0058 Z
    Strength   :     0.0003716019
    D(   66) --> V(    1) amplitude =  0.9272
    D(   68) --> V(    3) amplitude =  0.3132

 Excited state   6: excitation energy (eV) =    4.7570
 Total energy for state  6:                  -843.50509788 au
    Multiplicity: Singlet
    Trans. Mom.:  0.6965 X   1.5807 Y   0.0569 Z
    Strength   :     0.3481201831
    D(   65) --> V(    3) amplitude =  0.2474
    D(   66) --> V(    6) amplitude =  0.2270
    D(   67) --> V(    1) amplitude =  0.6561
    D(   68) --> V(    2) amplitude =  0.6061

 Excited state   7: excitation energy (eV) =    4.9167
 Total energy for state  7:                  -843.49922792 au
    Multiplicity: Singlet
    Trans. Mom.: -0.0432 X  -0.2075 Y   0.0074 Z
    Strength   :     0.0054190760
    D(   65) --> V(    1) amplitude =  0.6105
    D(   68) --> V(    6) amplitude = -0.7517
 
 ---------------------------------------------------
 Calculating Relaxed Density
 ---------------------------------------------------
 Iter    Rts Conv    Rts Left    Ttl Dev     Max Dev
 ---------------------------------------------------
   1         0           7      0.001280    0.000450
   2         0           7      0.000491    0.000193
   3         0           7      0.000084    0.000026
   4         1           6      0.000023    0.000009
   5         6           1      0.000003    0.000003
   6         7           0      0.000000    0.000000    Roots Converged
 ---------------------------------------------------
  SETman timing summary (seconds)
  CPU time              1132.28s
  System time              0.00s
  Wall time             1134.97s
 
 --------------------------------------------------------------
 
                    Orbital Energies (a.u.)
 --------------------------------------------------------------
 
 Alpha MOs
 -- Occupied --
-19.2183 -19.1627 -10.3411 -10.2212 -10.2210 -10.2144 -10.2124 -10.2117
-10.2115 -10.2109 -10.2104 -10.2065 -10.2057 -10.2043 -10.2042 -10.2036
-10.2035 -10.2033 -10.2033 -10.2027  -1.1246  -1.0347  -0.9033  -0.8653
 -0.8423  -0.8167  -0.7922  -0.7641  -0.7549  -0.7388  -0.7125  -0.6463
 -0.6395  -0.6358  -0.6236  -0.6071  -0.5568  -0.5324  -0.5266  -0.5225
 -0.5052  -0.5001  -0.4872  -0.4837  -0.4549  -0.4521  -0.4433  -0.4419
 -0.4387  -0.4223  -0.4160  -0.4103  -0.4078  -0.4061  -0.3974  -0.3782
 -0.3725  -0.3680  -0.3504  -0.3407  -0.3393  -0.3296  -0.3062  -0.2947
 -0.2819  -0.2660  -0.2421  -0.2084
 -- Virtual --
 -0.0717  -0.0396  -0.0215  -0.0180  -0.0057  -0.0015   0.0040   0.0096
  0.0166   0.0228   0.0322   0.0365   0.0393   0.0425   0.0461   0.0551
  0.0588   0.0620   0.0636   0.0676   0.0718   0.0773   0.0889   0.0893
  0.0937   0.0989   0.1027   0.1110   0.1119   0.1186   0.1262   0.1314
  0.1326   0.1374   0.1379   0.1435   0.1464   0.1531   0.1543   0.1628
  0.1679   0.1698   0.1736   0.1759   0.1784   0.1810   0.1842   0.1872
  0.1909   0.1932   0.1968   0.2031   0.2047   0.2093   0.2133   0.2182
  0.2231   0.2240   0.2287   0.2328   0.2359   0.2420   0.2440   0.2459
  0.2480   0.2519   0.2585   0.2606   0.2639   0.2658   0.2683   0.2708
  0.2757   0.2808   0.2826   0.2915   0.2923   0.2951   0.2971   0.2987
  0.3010   0.3055   0.3110   0.3137   0.3163   0.3204   0.3244   0.3314
  0.3397   0.3426   0.3472   0.3555   0.3607   0.3750   0.3822   0.3933
  0.4004   0.4055   0.4151   0.4223   0.4283   0.4369   0.4425   0.4543
  0.4690   0.4832   0.4948   0.5098   0.5307   0.5413   0.5669   0.5891
  0.6374   0.6460   0.6514   0.6649   0.6736   0.6779   0.6881   0.6967
  0.6995   0.7014   0.7114   0.7198   0.7227   0.7303   0.7341   0.7357
  0.7492   0.7505   0.7540   0.7564   0.7603   0.7679   0.7765   0.7816
  0.7831   0.7876   0.7911   0.7970   0.7974   0.8063   0.8077   0.8317
  0.8517   0.8566   0.8721   0.8866   0.8927   0.8947   0.9114   0.9174
  0.9267   0.9475   0.9504   0.9641   0.9677   0.9741   0.9954   1.0129
  1.0236   1.0476   1.0606   1.0660   1.0857   1.1070   1.1219   1.1329
  1.1555   1.1586   1.1649   1.1685   1.1716   1.1772   1.1878   1.1930
  1.2083   1.2114   1.2219   1.2244   1.2387   1.2458   1.2582   1.2704
  1.2766   1.2848   1.2958   1.3021   1.3136   1.3282   1.3306   1.3363
  1.3507   1.3721   1.3805   1.3865   1.4104   1.4216   1.4263   1.4588
  1.4618   1.4636   1.4640   1.4759   1.4791   1.4820   1.4866   1.5272
  1.5386   1.5517   1.5570   1.5689   1.6028   1.6329   1.6675   1.7094
  1.7326   1.7416   1.7602   1.7639   1.7704   1.7922   1.7988   1.8097
  1.8221   1.8363   1.8446   1.8496   1.8721   1.8800   1.8882   1.9078
  1.9191   1.9316   1.9341   1.9437   1.9445   1.9505   1.9631   1.9726
  1.9893   2.0007   2.0270   2.0399   2.0419   2.0671   2.0853   2.1128
  2.1382   2.1456   2.1599   2.1882   2.2050   2.2254   2.2289   2.2495
  2.2683   2.2717   2.2859   2.2981   2.3076   2.3246   2.3256   2.3640
  2.3691   2.3728   2.3805   2.4076   2.4138   2.4277   2.4495   2.4603
  2.5004   2.5100   2.5205   2.5634   2.5935   2.6358   2.6455   2.6538
  2.6689   2.6823   2.6986   2.7318   2.7420   2.7554   2.7682   2.7984
  2.8057   2.8346   2.8592   2.8696   2.8856   2.9053   2.9330   2.9570
  2.9850   3.0577   3.0735   3.0822   3.1037   3.1343   3.2267   3.3385
  3.4821   3.5376   4.2004   4.2106   4.2335   4.2443   4.2706   4.3155
  4.3388   4.3418   4.3468   4.3751   4.3852   4.4178   4.4334   4.4509
  4.4682   4.4911   4.5798   4.6210   4.7074   4.9214
 --------------------------------------------------------------
 
          Ground-State Mulliken Net Atomic Charges

     Atom                 Charge (a.u.)
  ----------------------------------------
      1 C                     0.732382
      2 C                    -0.182899
      3 C                    -0.319483
      4 C                    -0.097920
      5 C                     0.341224
      6 C                    -0.182209
      7 C                     0.269531
      8 C                    -0.245231
      9 C                    -0.476324
     10 C                    -0.249504
     11 C                     0.415652
     12 C                    -0.461237
     13 C                    -0.384276
     14 C                    -0.583136
     15 C                    -1.053596
     16 C                     1.259762
     17 C                    -0.518334
     18 C                    -0.002479
     19 O                    -0.523226
     20 O                    -0.387314
     21 H                     0.184387
     22 H                     0.184851
     23 H                     0.183407
     24 H                     0.182534
     25 H                     0.184526
     26 H                     0.180615
     27 H                     0.183822
     28 H                     0.188035
     29 H                     0.192558
     30 H                     0.258234
     31 H                     0.235833
     32 H                     0.489815
  ----------------------------------------
  Sum of atomic charges =     0.000000

 -----------------------------------------------------------------
                    Cartesian Multipole Moments
 -----------------------------------------------------------------
    Charge (ESU x 10^10)
                -0.0000
    Dipole Moment (Debye)
         X      -1.2728      Y       0.4210      Z      -1.2190
       Tot       1.8120
    Quadrupole Moments (Debye-Ang)
        XX    -108.7771     XY       0.7558     YY    -101.6685
        XZ      -8.6934     YZ       1.8722     ZZ    -124.1835
    Octopole Moments (Debye-Ang^2)
       XXX     -15.1318    XXY      -0.1903    XYY       7.1860
       YYY      -0.3079    XXZ     -66.9823    XYZ       7.1148
       YYZ       0.5620    XZZ      19.2462    YZZ       1.1254
       ZZZ      -3.1324
    Hexadecapole Moments (Debye-Ang^3)
      XXXX   -5677.9267   XXXY     -15.7884   XXYY   -1195.3148
      XYYY      -5.6736   YYYY   -1582.2153   XXXZ    -400.3769
      XXYZ      39.6996   XYYZ       3.6042   YYYZ       1.9884
      XXZZ   -1131.8160   XYZZ       1.5174   YYZZ    -365.9261
      XZZZ     -24.6029   YZZZ       3.0553   ZZZZ    -252.8215
 -----------------------------------------------------------------
 -----------------------------------------------------------------
                 TDA Excited-State Multipoles, State    1   
 -----------------------------------------------------------------
    Charge (ESU x 10^10)
                -0.0000
    Dipole Moment (Debye)
         X      -1.2543      Y       0.2196      Z      -1.2160
       Tot       1.7607
    Quadrupole Moments (Debye-Ang)
        XX    -110.8302     XY       1.6504     YY    -102.0967
        XZ      -8.7362     YZ       1.8880     ZZ    -124.5177
    Octopole Moments (Debye-Ang^2)
       XXX      -7.6660    XXY      -2.2406    XYY       7.0019
       YYY      -1.5777    XXZ     -66.7738    XYZ       7.0878
       YYZ       0.5205    XZZ      19.5543    YZZ       0.9299
       ZZZ      -3.1974
    Hexadecapole Moments (Debye-Ang^3)
      XXXX   -5755.9466   XXXY       1.8330   XXYY   -1204.1130
      XYYY       1.7059   YYYY   -1588.1383   XXXZ    -401.4395
      XXYZ      40.0391   XYYZ       3.4116   YYYZ       2.2073
      XXZZ   -1139.2901   XYZZ       3.3723   YYZZ    -368.2160
      XZZZ     -25.2989   YZZZ       3.1385   ZZZZ    -255.5533
 -----------------------------------------------------------------
 -----------------------------------------------------------------
                 TDA Excited-State Multipoles, State    2   
 -----------------------------------------------------------------
    Charge (ESU x 10^10)
                -0.0000
    Dipole Moment (Debye)
         X      -1.5802      Y      -1.3543      Z      -1.2780
       Tot       2.4422
    Quadrupole Moments (Debye-Ang)
        XX    -110.2653     XY       3.4185     YY    -101.8788
        XZ      -8.7436     YZ       1.8035     ZZ    -124.7425
    Octopole Moments (Debye-Ang^2)
       XXX      -7.2019    XXY      -6.1722    XYY       2.7143
       YYY     -12.1999    XXZ     -66.9252    XYZ       6.9726
       YYZ       0.1140    XZZ      19.3816    YZZ      -0.3181
       ZZZ      -3.4401
    Hexadecapole Moments (Debye-Ang^3)
      XXXX   -5760.9506   XXXY       0.1723   XXYY   -1198.2561
      XYYY      19.5895   YYYY   -1585.8652   XXXZ    -402.1371
      XXYZ      39.4310   XYYZ       3.3784   YYYZ       2.0292
      XXZZ   -1140.5880   XYZZ       4.0611   YYZZ    -369.5203
      XZZZ     -25.6616   YZZZ       2.7089   ZZZZ    -256.9791
 -----------------------------------------------------------------
 -----------------------------------------------------------------
                 TDA Excited-State Multipoles, State    3   
 -----------------------------------------------------------------
    Charge (ESU x 10^10)
                -0.0000
    Dipole Moment (Debye)
         X      -0.2091      Y       1.4755      Z      -1.1267
       Tot       1.8682
    Quadrupole Moments (Debye-Ang)
        XX     -99.8785     XY      -4.9141     YY    -104.7055
        XZ      -8.2176     YZ       1.7087     ZZ    -125.2785
    Octopole Moments (Debye-Ang^2)
       XXX     -46.6267    XXY      12.5676    XYY      17.6293
       YYY       7.8103    XXZ     -67.4842    XYZ       7.4026
       YYZ       0.9950    XZZ      21.8462    YZZ       2.1022
       ZZZ      -2.9604
    Hexadecapole Moments (Debye-Ang^3)
      XXXX   -5502.5894   XXXY     -62.0851   XXYY   -1206.3350
      XYYY     -35.1414   YYYY   -1643.5668   XXXZ    -395.4269
      XXYZ      39.2405   XYYZ       4.5300   YYYZ       1.0622
      XXZZ   -1134.2887   XYZZ      -2.4456   YYZZ    -379.4814
      XZZZ     -23.9057   YZZZ       2.2977   ZZZZ    -261.3042
 -----------------------------------------------------------------
 -----------------------------------------------------------------
                 TDA Excited-State Multipoles, State    4   
 -----------------------------------------------------------------
    Charge (ESU x 10^10)
                -0.0000
    Dipole Moment (Debye)
         X     -25.0469      Y      -2.4168      Z      -1.5699
       Tot      25.2122
    Quadrupole Moments (Debye-Ang)
        XX    -171.5545     XY      -7.4918     YY     -91.2148
        XZ     -10.9506     YZ       2.3066     ZZ    -124.7099
    Octopole Moments (Debye-Ang^2)
       XXX    -513.1422    XXY     -30.4172    XYY     -24.8704
       YYY     -17.1358    XXZ     -83.9906    XYZ       7.9106
       YYZ       1.0636    XZZ       1.5842    YZZ      -1.2658
       ZZZ      -2.9462
    Hexadecapole Moments (Debye-Ang^3)
      XXXX   -7395.1975   XXXY    -168.9909   XXYY   -1197.9652
      XYYY     -27.2000   YYYY   -1527.1646   XXXZ    -486.5116
      XXYZ      46.1304   XYYZ       3.1448   YYYZ       4.5949
      XXZZ   -1186.8039   XYZZ      -4.3841   YYZZ    -361.0929
      XZZZ     -24.1213   YZZZ       4.1005   ZZZZ    -257.3017
 -----------------------------------------------------------------
 -----------------------------------------------------------------
                 TDA Excited-State Multipoles, State    5   
 -----------------------------------------------------------------
    Charge (ESU x 10^10)
                -0.0000
    Dipole Moment (Debye)
         X      -1.7709      Y       0.2740      Z      -1.2618
       Tot       2.1916
    Quadrupole Moments (Debye-Ang)
        XX    -124.1530     XY       6.6616     YY    -103.3034
        XZ      -9.3231     YZ       2.0619     ZZ    -124.7048
    Octopole Moments (Debye-Ang^2)
       XXX      33.3157    XXY     -15.1296    XYY       6.1870
       YYY      -1.3731    XXZ     -66.4904    XYZ       6.7974
       YYZ       0.2645    XZZ      19.2805    YZZ       0.7988
       ZZZ      -3.3603
    Hexadecapole Moments (Debye-Ang^3)
      XXXX   -5989.6120   XXXY      28.3688   XXYY   -1227.4948
      XYYY      38.8642   YYYY   -1593.5245   XXXZ    -407.5305
      XXYZ      39.2082   XYYZ       2.4604   YYYZ       3.9246
      XXZZ   -1147.7313   XYZZ       6.0439   YYZZ    -371.0658
      XZZZ     -26.4740   YZZZ       3.2088   ZZZZ    -256.7275
 -----------------------------------------------------------------
 -----------------------------------------------------------------
                 TDA Excited-State Multipoles, State    6   
 -----------------------------------------------------------------
    Charge (ESU x 10^10)
                -0.0000
    Dipole Moment (Debye)
         X      -2.3201      Y      -1.3424      Z      -1.2668
       Tot       2.9647
    Quadrupole Moments (Debye-Ang)
        XX    -110.8918     XY       2.7027     YY    -102.8909
        XZ      -8.5983     YZ       1.6620     ZZ    -124.9306
    Octopole Moments (Debye-Ang^2)
       XXX     -22.6055    XXY      -4.0129    XYY       3.5108
       YYY     -10.3503    XXZ     -66.5391    XYZ       6.8039
       YYZ       0.0803    XZZ      18.7946    YZZ      -0.3891
       ZZZ      -3.3224
    Hexadecapole Moments (Debye-Ang^3)
      XXXX   -5793.9584   XXXY      -6.1374   XXYY   -1201.1791
      XYYY      10.8065   YYYY   -1602.2558   XXXZ    -398.5394
      XXYZ      38.0609   XYYZ       4.1962   YYYZ       0.5236
      XXZZ   -1142.8463   XYZZ       3.7633   YYZZ    -371.8639
      XZZZ     -24.5520   YZZZ       2.0008   ZZZZ    -258.8010
 -----------------------------------------------------------------
 -----------------------------------------------------------------
                 TDA Excited-State Multipoles, State    7   
 -----------------------------------------------------------------
    Charge (ESU x 10^10)
                -0.0000
    Dipole Moment (Debye)
         X      -1.0224      Y       0.8904      Z      -1.1391
       Tot       1.7708
    Quadrupole Moments (Debye-Ang)
        XX    -113.6244     XY      -0.2591     YY    -104.5428
        XZ      -8.6707     YZ       1.2505     ZZ    -125.8025
    Octopole Moments (Debye-Ang^2)
       XXX      -6.1407    XXY       4.0636    XYY      12.0597
       YYY       2.9719    XXZ     -65.1869    XYZ       8.1178
       YYZ       0.4510    XZZ      22.4179    YZZ       2.6877
       ZZZ      -2.8031
    Hexadecapole Moments (Debye-Ang^3)
      XXXX   -5843.0012   XXXY     -27.8696   XXYY   -1235.9758
      XYYY     -10.0501   YYYY   -1652.9742   XXXZ    -400.1347
      XXYZ      35.0192   XYYZ       4.0960   YYYZ      -9.1089
      XXZZ   -1157.1470   XYZZ      -1.2469   YYZZ    -385.4478
      XZZZ     -25.6754   YZZZ      -0.6753   ZZZZ    -266.8232
 -----------------------------------------------------------------
 Calculating MO derivatives via CPSCF
   1         3          96      0.345436    0.053321
   2         3          96      0.049324    0.005961
   3         3          96      0.003191    0.000554
   4        47          52      0.000188    0.000041
   5        97           2      0.000003    0.000002
   6        99           0      0.000000    0.000000    Roots Converged
 Time for AOints: 428.2 s (CPU) 429.2 s (wall)
 ------------------------------------------------------------------------------
                     AOints        : Timing summary (seconds)
 ------------------------------------------------------------------------------
     job step          cpu (% of tot)      sys (% of tot)     wall (% of tot)
 ------------------------------------------------------------------------------
  cpscf_lag         0.6481E+03 (24.9)   0.6700E-04 ( 4.9)   0.6496E+03 (24.9)
  iterzp            0.1522E+04 (58.5)   0.1256E-02 (92.8)   0.1525E+04 (58.5)
  make_fx           0.0000E+00 ( 0.0)   0.0000E+00 ( 0.0)   0.0000E+00 ( 0.0)
  AOints            0.4282E+03 (16.5)   0.9000E-05 ( 0.7)   0.4292E+03 (16.5)
 ------------------------------------------------------------------------------
   Grand Totals     0.2599E+04          0.1354E-02          0.2605E+04
 ------------------------------------------------------------------------------
 Calculating CIS amplitude derivatives via CPCIS
 CIS relaxed dipole moment
            1
    1  -0.0701628
    2  -0.3053648
    3  -0.0135247
	Magnitude:	 0.314 au	 0.797 Debye
 CIS Excitation Energy is    0.1387513660
 Gradient of the CIS Excitation Energy
            1           2           3           4           5           6
    1   0.0031695   0.1595527  -0.0561880   0.0642243  -0.0756599  -0.1581374
    2  -0.1553530  -0.0692012   0.0649750  -0.0030243  -0.1102043   0.0243670
    3   0.0014166   0.0069016  -0.0062384   0.0049518  -0.0022920  -0.0044451
            7           8           9          10          11          12
    1  -0.0020932   0.0226855  -0.0700635  -0.0200958   0.0593650   0.1752453
    2   0.1308047   0.0921527   0.0208253  -0.1100437   0.0932124  -0.0285315
    3   0.0020676   0.0039551  -0.0028168  -0.0015044  -0.0026274   0.0080738
           13          14          15          16          17          18
    1  -0.1519651  -0.0981547   0.0663529   0.1444712   0.0156691  -0.2634932
    2   0.1000749  -0.1344605  -0.0200559   0.1966531  -0.1431655   0.1468857
    3  -0.0050463  -0.0076897   0.0070654  -0.0171090  -0.0268901  -0.0654430
           19          20          21          22          23          24
    1  -0.1075537   0.2796374   0.0327537  -0.1392685  -0.0375048  -0.1762697
    2   0.0707877  -0.1564652  -0.1813901  -0.1204033   0.1796113   0.0618095
    3  -0.2097529   0.3043586  -0.0011339  -0.0081397   0.0019426  -0.0065529
           25          26          27          28          29          30
    1  -0.1413713   0.1329814  -0.0323521   0.0371587   0.1699963   0.0034725
    2  -0.1163377   0.1265069   0.1816862  -0.1802626  -0.0701814   0.0736008
    3  -0.0081449   0.0102098   0.0033420   0.0008514   0.0108218   0.1548829
           31          32
    1  -0.0208824   0.1843180
    2   0.1230719  -0.0879449
    3  -0.1170395  -0.0279751

 IstLag:0 LstLag:98 NpeLag:99 IstAtom:1 LstAtom:33 NpeAtoms:33 myseg:0 NSEG:1 
f*R^(x) and f*R
   1         3          96      0.557484    0.315464
   2         3          96      0.026280    0.009641
   3        24          75      0.001049    0.000336
   4        75          24      0.000088    0.000031
   5        89          10      0.000044    0.000018
   6        97           2      0.000025    0.000018
   7        99           0      0.000000    0.000000    Roots Converged
 CPCIS time:  CPU 3182.71 s  wall 3190.21 s
 transition dipole derivative
            1           2           3
    1   2.0052792   0.3888430   0.0899162
    2  -0.1984746   0.4891132  -0.0008654
    3   0.0987362   0.0321876   0.0714157
    4  -1.2949921  -0.0499965  -0.0533532
    5  -0.3339639  -0.1937987  -0.0171165
    6  -0.0603450  -0.0051609  -0.0748671
    7  -1.2170545   0.1384600  -0.0460592
    8   0.1489960  -0.6286273  -0.0035586
    9  -0.0539960  -0.0089248  -0.0313425
   10   1.1574164  -0.1201336   0.0435263
   11  -0.2517627   0.5831623  -0.0005937
   12   0.0440925   0.0029570   0.0279447
   13  -1.2141584   0.9280928  -0.0318909
   14   0.3704208  -1.1497490  -0.0008762
   15  -0.0454666   0.0217039  -0.0636284
   16   0.6707655  -0.4275554   0.0187941
   17  -0.6457892   0.7654504  -0.0161611
   18   0.0192079  -0.0079289   0.0791557
   19  -1.8741468  -0.4861755  -0.0832858
   20   0.2999677  -0.4995452   0.0044955
   21  -0.0700653  -0.0292887  -0.0644879
   22   1.9152415   1.2903350   0.0924730
   23   0.0391615   0.5613967   0.0083867
   24   0.0761137   0.0637627   0.1828025
   25  -0.7489809  -0.6069963  -0.0374390
   26  -0.6736737  -2.1581837  -0.0635606
   27  -0.0449810  -0.0660741  -0.0939447
   28   0.5972774  -1.3268276  -0.0049881
   29  -0.2091476   1.7054674   0.0171893
   30   0.0154583  -0.0284137   0.1800331
   31   1.3211758  -0.8742444   0.0339915
   32  -0.1840056   1.0397579   0.0154320
   33   0.0530982  -0.0127397   0.0809798
   34  -0.6496689   0.3243984  -0.0129105
   35   0.6729075  -0.7476104   0.0145215
   36  -0.0228157  -0.0014844  -0.1177166
   37   1.3178252   0.1396478   0.0513769
   38   0.4032363   0.2183556   0.0196457
   39   0.0604440   0.0125660   0.1018072
   40  -2.0557980  -1.2939513  -0.0961818
   41  -0.2778463  -0.5094999  -0.0177812
   42  -0.0890756  -0.0577692  -0.1944313
   43   0.8026771   0.6123489   0.0377143
   44   0.8533731   2.2685068   0.0675103
   45   0.0302038   0.0359435   0.0732390
   46  -0.8815072   1.2821235  -0.0213084
   47  -0.0728276  -1.8470648  -0.0401457
   48  -0.0051373   0.0509858  -0.1117613
   49   0.1529747   0.0776393   0.0158263
   50   0.2436436   0.1551173   0.0259900
   51   0.0576947   0.0715467   0.0934297
   52  -0.0037010  -0.0481671   0.0136143
   53  -0.0299299  -0.0012753  -0.0046488
   54   0.0081007  -0.0169698   0.0039442
   55   0.0235370   0.0187617  -0.0059567
   56   0.0019216   0.0040217   0.0030687
   57   0.0068274  -0.0053464  -0.0021689
   58  -0.0126587   0.0135487  -0.0093876
   59   0.0134634  -0.0054994   0.0036440
   60  -0.0201624   0.0065964  -0.0115626
   61  -0.0125493  -0.0083725  -0.0009835
   62  -0.0014431   0.0003548  -0.0002037
   63  -0.0020465  -0.0001890   0.0080043
   64   0.0038983  -0.0072616   0.0003942
   65  -0.0052938   0.0154047   0.0000748
   66   0.0002735   0.0001316  -0.0083353
   67   0.0343185   0.0041604   0.0029541
   68  -0.0129361   0.0580656   0.0012057
   69   0.0040691   0.0023133  -0.0334888
   70   0.0220194  -0.0167275  -0.0003989
   71  -0.0254005  -0.0195300  -0.0019032
   72  -0.0005083  -0.0015287   0.0215329
   73   0.0409460   0.0102597   0.0033938
   74   0.0216044   0.0464545   0.0022375
   75   0.0038685   0.0015110  -0.0354172
   76  -0.0000280   0.0120468  -0.0022680
   77   0.0002859  -0.0067083  -0.0013653
   78   0.0015545  -0.0030433   0.0207647
   79   0.0050835   0.0108250   0.0009262
   80  -0.0058773   0.0094150   0.0002641
   81   0.0009975   0.0010805  -0.0121523
   82  -0.0304638  -0.0069394  -0.0032914
   83   0.0056336  -0.0575173  -0.0001921
   84  -0.0078518  -0.0027706   0.0352909
   85  -0.0138582   0.0177924   0.0010326
   86   0.0232214   0.0222164   0.0010301
   87   0.0059924  -0.0061118  -0.0174353
   88  -0.0364311  -0.0086733   0.0004143
   89  -0.0997375  -0.0511822  -0.0290357
   90  -0.0967163  -0.0619067  -0.0667918
   91  -0.0082592   0.0128991  -0.0047146
   92  -0.0771204  -0.0633974   0.0177481
   93   0.0316713   0.0117708  -0.0372399
   94  -0.0161795  -0.0001606   0.0080693
   95   0.0073930  -0.0030714  -0.0044362
   96   0.0007633   0.0005940  -0.0035725
 TDDFT-Hessian time:  CPU 3665.44 s  wall 3675.71 s
 Gradient time:  CPU 9514.07 s  wall 9538.12 s

 Mass-Weighted Hessian Matrix:


     0.058493   -0.002066    0.002291   -0.015325   -0.007079   -0.000541
    -0.002066    0.051223    0.000336   -0.004412   -0.015630   -0.000354
     0.002291    0.000336    0.009908   -0.000548   -0.000499   -0.005335
    -0.015325   -0.004412   -0.000548    0.059163   -0.006719    0.002227
    -0.007079   -0.015630   -0.000499   -0.006719    0.057896    0.000371
    -0.000541   -0.000354   -0.005335    0.002227    0.000371    0.009104
    -0.009437    0.001441   -0.000211    0.000843   -0.001941    0.000001
     0.003175   -0.020200   -0.000019   -0.003246   -0.002751   -0.000179
    -0.000159   -0.000131   -0.004618   -0.000042   -0.000126    0.000169
    -0.000917    0.004743    0.000024   -0.001522   -0.000218   -0.000067
     0.002690   -0.001318    0.000097   -0.000693    0.000308   -0.000020
     0.000033    0.000203   -0.000264   -0.000070    0.000003    0.000021
     0.000107   -0.001621   -0.000020   -0.000112    0.003111    0.000007
    -0.000204   -0.002610   -0.000023    0.004208   -0.001668    0.000160
     0.000006   -0.000091   -0.000032    0.000028    0.000107    0.000786
    -0.004148   -0.001995   -0.000259   -0.032005    0.009837   -0.001156
    -0.001052    0.002623   -0.000027    0.006155   -0.012005    0.000168
    -0.000235   -0.000042    0.000891   -0.001174    0.000325   -0.004059
    -0.000635   -0.000555   -0.000046    0.000616   -0.000139    0.000035
    -0.000425    0.000662   -0.000052    0.000416   -0.000154    0.000010
    -0.000077   -0.000021    0.000694    0.000042   -0.000002   -0.000067
    -0.001344   -0.000111   -0.000077   -0.000204    0.000240   -0.000000
     0.000020    0.000600    0.000014    0.000077    0.000200    0.000008
    -0.000070    0.000014    0.000028   -0.000009    0.000021    0.000012
     0.000949    0.000073    0.000059   -0.000392    0.000053   -0.000017
     0.001304    0.000769    0.000089    0.000203   -0.000344   -0.000000
     0.000061    0.000024    0.000044   -0.000012    0.000000    0.000045
     0.000759    0.000866    0.000074    0.000104   -0.000520   -0.000028
    -0.000455   -0.000564   -0.000033   -0.000247   -0.000275   -0.000019
     0.000034    0.000041    0.000040   -0.000004   -0.000033    0.000450
     0.002766   -0.001377    0.000070   -0.000354    0.000126   -0.000051
    -0.003943   -0.005425   -0.000218    0.002434   -0.000456    0.000090
     0.000002   -0.000206    0.000225    0.000016   -0.000007    0.000541
    -0.001774   -0.002025   -0.000168    0.002038    0.000037    0.000070
     0.000990    0.001690    0.000048   -0.001821    0.000117   -0.000079
    -0.000074   -0.000015    0.000549    0.000047    0.000022    0.000112
     0.000698    0.001061    0.000077   -0.002236    0.000116   -0.000095
    -0.000494   -0.000904   -0.000044    0.000348   -0.000303   -0.000003
     0.000026    0.000037   -0.000066   -0.000071    0.000002   -0.000052
    -0.023453    0.006195   -0.000795   -0.005179   -0.000632   -0.000287
     0.008130   -0.010490    0.000362   -0.002417    0.001200   -0.000090
    -0.000900    0.000250   -0.004370   -0.000323   -0.000018    0.000638
    -0.004925   -0.001292   -0.000308    0.000765    0.000664    0.000009
    -0.004362    0.000937   -0.000204    0.002096    0.000740    0.000109
    -0.000321   -0.000039    0.001031    0.000024    0.000036    0.000467
    -0.001959    0.000245   -0.000103    0.001077    0.000433    0.000068
     0.003392    0.000593    0.000196   -0.001271   -0.000731   -0.000062
    -0.000051   -0.000038   -0.000236    0.000043    0.000009   -0.000067
    -0.000113   -0.000066    0.000030    0.000027    0.000002   -0.000010
    -0.000102    0.000112   -0.000003   -0.000025    0.000088    0.000002
    -0.000062    0.000002   -0.000178    0.000013    0.000020    0.000024
     0.000119    0.000124   -0.000002   -0.000009    0.000007   -0.000000
    -0.000001    0.000034    0.000001   -0.000012   -0.000002   -0.000003
    -0.000042   -0.000017    0.000015   -0.000008    0.000012   -0.000014
    -0.000045   -0.000046    0.000000    0.000009   -0.000005    0.000003
     0.000007    0.000003   -0.000002    0.000008   -0.000003   -0.000006
     0.000013    0.000042   -0.000013    0.000005    0.000014    0.000001
    -0.000049   -0.000054    0.000001   -0.000001   -0.000002    0.000001
     0.000002    0.000008    0.000008    0.000000    0.000007    0.000002
     0.000013   -0.000015    0.000002   -0.000002   -0.000010    0.000001
     0.002320   -0.006728   -0.000035   -0.019792    0.014409   -0.000245
     0.001552   -0.004752   -0.000021    0.014810   -0.093937   -0.000526
     0.000088   -0.000383    0.001171   -0.000274   -0.000542   -0.010180
    -0.000871    0.001212   -0.000108   -0.005572   -0.006293   -0.000423
     0.000714    0.000092    0.000007    0.002929    0.003185    0.000159
    -0.000113    0.000037    0.001829   -0.000285   -0.000258    0.001473
    -0.000211   -0.000059    0.000001   -0.000047   -0.000030   -0.000005
     0.000078    0.000055    0.000006   -0.000063    0.000044   -0.000002
     0.000001   -0.000004   -0.000258   -0.000001   -0.000002    0.000058
    -0.000053    0.000065   -0.000004    0.000075    0.000021    0.000011
     0.000030    0.000159    0.000000   -0.000004   -0.000130    0.000002
    -0.000000    0.000003    0.000052    0.000008   -0.000001   -0.000146
     0.000005    0.000108   -0.000001    0.000062    0.000121    0.000008
    -0.000121    0.000042   -0.000009   -0.000022    0.000055    0.000002
     0.000001    0.000003    0.000053    0.000004    0.000006   -0.000072
     0.000097    0.000003   -0.000014    0.000014    0.000030    0.000003
    -0.000352    0.000057   -0.000016    0.000046   -0.000180    0.000007
    -0.000035    0.000002    0.000222   -0.000007    0.000016   -0.000164
     0.000115    0.000144    0.000018   -0.000020    0.000058   -0.000002
     0.000084    0.000152    0.000010   -0.000009    0.000064    0.000001
     0.000021    0.000025   -0.000228   -0.000016    0.000005    0.000073
    -0.000587    0.008741   -0.000035    0.000476    0.000447    0.000066
     0.000109   -0.002146   -0.000014   -0.000429    0.000249   -0.000021
     0.000004    0.000379    0.000993    0.000046    0.000015   -0.000740
    -0.000298   -0.001228   -0.000150   -0.000205    0.000254   -0.000009
    -0.000885   -0.000883   -0.000045   -0.000095    0.000221    0.000003
    -0.000093   -0.000027    0.001904   -0.000002    0.000005    0.000082
     0.000195    0.000430   -0.000063   -0.000129    0.000030   -0.000007
     0.000210   -0.000045   -0.000021   -0.000099   -0.000061   -0.000004
     0.000323    0.000034    0.000057   -0.000080   -0.000097    0.000017
     0.000110    0.000354    0.000069   -0.000052    0.000035    0.000006
     0.000227    0.000011    0.000015   -0.000103   -0.000035   -0.000005
    -0.000004    0.000015    0.000033   -0.000017   -0.000004    0.000017
     0.000035    0.000015    0.000010   -0.000007   -0.000002   -0.000000
    -0.000021   -0.000040   -0.000003    0.000007    0.000002    0.000019
    -0.000028   -0.000029   -0.000002   -0.000002    0.000000   -0.000002


    -0.009437    0.003175   -0.000159   -0.000917    0.002690    0.000033
     0.001441   -0.020200   -0.000131    0.004743   -0.001318    0.000203
    -0.000211   -0.000019   -0.004618    0.000024    0.000097   -0.000264
     0.000843   -0.003246   -0.000042   -0.001522   -0.000693   -0.000070
    -0.001941   -0.002751   -0.000126   -0.000218    0.000308    0.000003
     0.000001   -0.000179    0.000169   -0.000067   -0.000020    0.000021
     0.052908    0.000290    0.001817   -0.019143    0.003541   -0.000576
     0.000290    0.053484    0.000605    0.002992   -0.010942   -0.000023
     0.001817    0.000605    0.010717   -0.000585    0.000023   -0.003939
    -0.019143    0.002992   -0.000585    0.052932   -0.000471    0.001772
     0.003541   -0.010942    0.000023   -0.000471    0.054504    0.000775
    -0.000576   -0.000023   -0.003939    0.001772    0.000775    0.011089
    -0.004468    0.000031   -0.000201   -0.016087   -0.006356   -0.000601
    -0.002290    0.002397   -0.000054   -0.004529   -0.013375   -0.000364
    -0.000192    0.000031   -0.000244   -0.000579   -0.000410   -0.004954
    -0.000264    0.001286    0.000008    0.001981   -0.000527    0.000076
     0.000808   -0.000929    0.000030   -0.001924   -0.003935   -0.000157
    -0.000004    0.000047    0.000024    0.000053   -0.000083    0.000153
    -0.001242    0.002709    0.000000   -0.008373    0.003055   -0.000103
     0.003662   -0.001211    0.000162    0.003161   -0.021229   -0.000169
     0.000032    0.000103   -0.000257   -0.000092   -0.000193   -0.004706
     0.001700    0.000994    0.000086   -0.001488    0.002275   -0.000014
     0.000396   -0.000825   -0.000018    0.002109   -0.001029    0.000054
     0.000062    0.000016    0.000537   -0.000026    0.000079    0.000172
    -0.000639   -0.000525   -0.000032    0.000625   -0.000186    0.000029
    -0.000381   -0.001766   -0.000055   -0.000143   -0.000340   -0.000013
    -0.000032   -0.000061   -0.000138    0.000040   -0.000011   -0.000166
     0.000563   -0.001561   -0.000022   -0.004220   -0.000349   -0.000214
    -0.000386    0.000566   -0.000016   -0.001517    0.001212   -0.000059
    -0.000010   -0.000058    0.000457   -0.000223    0.000007    0.000373
    -0.015598   -0.006607   -0.000586   -0.004493   -0.000385   -0.000168
    -0.006468   -0.012831   -0.000407   -0.001336    0.002168    0.000001
    -0.000594   -0.000340   -0.004395   -0.000176    0.000019   -0.000302
     0.001326   -0.000388    0.000048    0.000753    0.001627    0.000061
    -0.001580   -0.004457   -0.000159    0.001061   -0.000844    0.000033
     0.000016   -0.000138    0.000211    0.000083    0.000030   -0.000115
    -0.000936   -0.001104   -0.000069   -0.000105   -0.003120   -0.000083
    -0.000518    0.001058   -0.000005   -0.002033   -0.003083   -0.000150
    -0.000041   -0.000018   -0.000166   -0.000087   -0.000200    0.000341
    -0.001595    0.002450   -0.000080    0.001744    0.000812    0.000056
     0.003359   -0.001725    0.000125   -0.000226   -0.000652   -0.000012
    -0.000053    0.000085    0.000217    0.000057    0.000009    0.000474
     0.000502   -0.000422    0.000040   -0.000681   -0.000462   -0.000035
     0.000027   -0.000116    0.000037   -0.000813   -0.001790   -0.000059
     0.000053   -0.000031   -0.000110   -0.000041   -0.000040   -0.000132
    -0.003774   -0.000352   -0.000125    0.000501   -0.001728   -0.000041
    -0.000520    0.000862   -0.000025   -0.000815    0.000953   -0.000019
    -0.000232    0.000038    0.000112   -0.000008   -0.000030    0.000559
    -0.000175    0.000475   -0.000042   -0.000178   -0.000037   -0.000006
     0.000496   -0.000146    0.000046   -0.000236    0.000071   -0.000019
     0.000130    0.000020    0.000359   -0.000116   -0.000050    0.000024
    -0.000014   -0.000146   -0.000039    0.000017    0.000138    0.000001
    -0.000075    0.000154   -0.000024   -0.000032   -0.000146   -0.000000
    -0.000039    0.000032    0.000030    0.000015   -0.000016   -0.000002
     0.000000    0.000064    0.000010   -0.000022   -0.000048   -0.000004
     0.000002   -0.000022    0.000007   -0.000010    0.000022   -0.000000
     0.000018   -0.000061   -0.000011    0.000020    0.000044    0.000002
    -0.000016    0.000079    0.000011    0.000006   -0.000052   -0.000001
     0.000028   -0.000066   -0.000013   -0.000004    0.000040   -0.000000
    -0.000017    0.000028    0.000006    0.000002   -0.000014    0.000000
    -0.001168   -0.000711   -0.000129   -0.000264   -0.000023   -0.000007
    -0.000994   -0.000091   -0.000071   -0.000220    0.000099   -0.000006
    -0.000127   -0.000064    0.001369   -0.000013   -0.000001   -0.000166
    -0.000018    0.000102    0.000011    0.000105    0.000557   -0.000046
     0.000296   -0.000155    0.000012    0.000870   -0.001405   -0.000006
     0.000011    0.000003   -0.000173   -0.000036   -0.000024    0.001362
     0.000134    0.000522    0.000012   -0.001546    0.000000   -0.000125
    -0.000157   -0.000148   -0.000007    0.000543    0.000274    0.000002
     0.000014    0.000023    0.000101   -0.000127   -0.000010    0.001320
     0.000066   -0.000010    0.000014    0.000078   -0.000140    0.000009
     0.000073   -0.000082    0.000010   -0.000043   -0.000207   -0.000001
     0.000012    0.000002   -0.000230    0.000005   -0.000006   -0.000123
    -0.000006   -0.000559   -0.000020   -0.001110    0.001067   -0.000078
     0.000191    0.000160    0.000010    0.000650   -0.000234    0.000006
    -0.000011   -0.000019    0.000290   -0.000085    0.000013    0.001192
    -0.000029    0.000623   -0.000015    0.000015    0.000135    0.000014
     0.001067   -0.001384   -0.000030   -0.000060   -0.000088   -0.000002
    -0.000031   -0.000050    0.001238    0.000068    0.000016   -0.000126
    -0.000099   -0.000135   -0.000001   -0.001280   -0.000637   -0.000128
     0.000004    0.000010    0.000007   -0.001103   -0.000100   -0.000087
    -0.000010   -0.000013   -0.000126   -0.000147   -0.000066    0.001247
    -0.001641    0.000047   -0.000135    0.000248    0.000509    0.000009
     0.000497    0.000287    0.000024   -0.000258   -0.000068   -0.000017
    -0.000159   -0.000004    0.001182    0.000014    0.000023    0.000260
     0.000087   -0.000048    0.000014   -0.000061   -0.000023    0.000009
    -0.000085   -0.000141   -0.000002   -0.000142    0.000054   -0.000009
     0.000044   -0.000021   -0.000113   -0.000005    0.000017   -0.000198
     0.000400   -0.000313    0.000208   -0.000384   -0.000258   -0.000019
    -0.000297   -0.000115    0.000159    0.000285   -0.000271    0.000009
    -0.000253   -0.000058    0.000025    0.000185   -0.000142   -0.000019
     0.000421   -0.000248   -0.000076   -0.000409   -0.000216   -0.000032
    -0.000227   -0.000142   -0.000137    0.000284   -0.000152    0.000032
     0.000080   -0.000066    0.000015   -0.000096    0.000136   -0.000019
    -0.000005   -0.000020   -0.000026    0.000023    0.000037    0.000008
    -0.000009    0.000005    0.000023    0.000029    0.000014   -0.000004
    -0.000006    0.000019    0.000012    0.000001   -0.000027   -0.000002


     0.000107   -0.000204    0.000006   -0.004148   -0.001052   -0.000235
    -0.001621   -0.002610   -0.000091   -0.001995    0.002623   -0.000042
    -0.000020   -0.000023   -0.000032   -0.000259   -0.000027    0.000891
    -0.000112    0.004208    0.000028   -0.032005    0.006155   -0.001174
     0.003111   -0.001668    0.000107    0.009837   -0.012005    0.000325
     0.000007    0.000160    0.000786   -0.001156    0.000168   -0.004059
    -0.004468   -0.002290   -0.000192   -0.000264    0.000808   -0.000004
     0.000031    0.002397    0.000031    0.001286   -0.000929    0.000047
    -0.000201   -0.000054   -0.000244    0.000008    0.000030    0.000024
    -0.016087   -0.004529   -0.000579    0.001981   -0.001924    0.000053
    -0.006356   -0.013375   -0.000410   -0.000527   -0.003935   -0.000083
    -0.000601   -0.000364   -0.004954    0.000076   -0.000157    0.000153
     0.057405   -0.003190    0.001920   -0.009780    0.002349   -0.000164
    -0.003190    0.051920    0.000549   -0.000531   -0.020990   -0.000266
     0.001920    0.000549    0.010810   -0.000201   -0.000176   -0.005146
    -0.009780   -0.000531   -0.000201    0.065142    0.000743    0.002527
     0.002349   -0.020990   -0.000176    0.000743    0.051731    0.000700
    -0.000164   -0.000266   -0.005146    0.002527    0.000700    0.009265
     0.002062   -0.004581    0.000027   -0.001791    0.001084   -0.000080
    -0.002222   -0.005144   -0.000171   -0.001353    0.000846   -0.000069
     0.000047   -0.000326    0.000153   -0.000114    0.000070    0.000435
    -0.002859    0.002312   -0.000064    0.000998   -0.001803    0.000016
    -0.000638    0.001537    0.000000    0.000120   -0.000413    0.000010
    -0.000137    0.000137   -0.000470    0.000045   -0.000092   -0.000080
     0.000267    0.001772    0.000016   -0.000728    0.000459   -0.000031
     0.005084   -0.004606    0.000144   -0.001147    0.002211   -0.000023
     0.000079   -0.000034    0.000630   -0.000063    0.000059    0.000332
    -0.024940    0.005579   -0.000774   -0.001196    0.002681   -0.000028
     0.003646   -0.008368    0.000080    0.004418   -0.002827    0.000142
    -0.000772    0.000150   -0.004371    0.000010    0.000050    0.000477
     0.000353    0.000993    0.000004    0.000207   -0.000057    0.000008
     0.000964   -0.000187    0.000028   -0.000648    0.000220   -0.000027
     0.000009    0.000001    0.000654   -0.000003    0.000005   -0.000048
    -0.000246   -0.001881   -0.000031   -0.001722    0.001073   -0.000064
    -0.000366    0.000126   -0.000019    0.000731   -0.000816    0.000012
    -0.000037   -0.000065   -0.000062   -0.000057    0.000034   -0.000031
    -0.000061    0.003694    0.000035    0.002214   -0.001724    0.000071
     0.000333   -0.000030    0.000004    0.000196   -0.000013    0.000002
    -0.000004    0.000163    0.000447    0.000096   -0.000066    0.000097
     0.000127   -0.001695   -0.000028    0.000148    0.000145   -0.000019
    -0.000098    0.000100    0.000004   -0.000253   -0.000494   -0.000028
     0.000009   -0.000052    0.000058   -0.000016    0.000002    0.000516
     0.000132    0.000503    0.000008   -0.000429    0.000003   -0.000018
    -0.000810    0.001989   -0.000009    0.000248   -0.000472    0.000002
     0.000003    0.000047    0.000084   -0.000023    0.000003    0.000028
    -0.000676    0.000885   -0.000024   -0.000267   -0.000069   -0.000017
     0.000991   -0.000736    0.000020   -0.000027    0.000405    0.000003
     0.000012    0.000031    0.000071   -0.000025   -0.000001    0.000074
     0.000033    0.000066    0.000012    0.000018   -0.000001    0.000006
     0.000019    0.000236   -0.000000    0.000086   -0.000047    0.000002
    -0.000010    0.000142   -0.000070    0.000054   -0.000014    0.000001
     0.000080   -0.000043   -0.000010   -0.000083    0.000006   -0.000007
    -0.000075    0.000043    0.000016    0.000045   -0.000005    0.000003
    -0.000020   -0.000033   -0.000012   -0.000003    0.000001   -0.000000
    -0.000021    0.000032    0.000006    0.000033    0.000001    0.000000
     0.000020    0.000011   -0.000005   -0.000006    0.000005    0.000005
     0.000013   -0.000029   -0.000009   -0.000030   -0.000003   -0.000000
    -0.000035   -0.000006    0.000001    0.000029    0.000000    0.000002
     0.000023    0.000007   -0.000003   -0.000013    0.000001   -0.000003
    -0.000004    0.000005    0.000007    0.000009   -0.000001    0.000003
    -0.001447    0.000042   -0.000152   -0.000525    0.009294    0.000042
     0.000525    0.000686    0.000008    0.000070   -0.001964   -0.000046
    -0.000146   -0.000014    0.001848   -0.000076    0.000374    0.001485
     0.002067    0.001217    0.000057   -0.063384   -0.039060   -0.003008
    -0.007097   -0.004417   -0.000410   -0.039452   -0.050432   -0.002442
    -0.000092   -0.000032    0.001199   -0.003005   -0.002422   -0.010472
    -0.000226   -0.000009   -0.000002    0.000099   -0.000049    0.000008
    -0.000208    0.000287    0.000001    0.000057   -0.000132    0.000002
    -0.000002    0.000012   -0.000183    0.000007   -0.000002   -0.000103
     0.000485    0.000139   -0.000062   -0.000120    0.000016   -0.000009
    -0.000306   -0.001693   -0.000078    0.000368    0.000140    0.000016
    -0.000064   -0.000058    0.001899    0.000001    0.000002    0.000075
    -0.005532   -0.005991   -0.000389    0.000366   -0.000552    0.000042
     0.002619    0.002722    0.000139    0.000317    0.000352    0.000031
    -0.000219   -0.000238    0.000879    0.000057   -0.000004   -0.000769
     0.000023   -0.000041    0.000007   -0.000010    0.000008   -0.000004
     0.000060    0.000287    0.000009    0.000092    0.000028    0.000004
    -0.000018   -0.000048   -0.000240   -0.000004   -0.000014    0.000072
     0.000191   -0.000148   -0.000001   -0.000112   -0.000090    0.000000
     0.000220   -0.000130    0.000002   -0.000125   -0.000053   -0.000002
     0.000008    0.000002    0.000219    0.000008   -0.000012   -0.000153
     0.000038   -0.000120   -0.000004    0.000002   -0.000068    0.000003
     0.000139    0.000026    0.000004    0.000050    0.000087    0.000004
     0.000005   -0.000011    0.000073    0.000013   -0.000003   -0.000077
     0.000009    0.000096   -0.000001   -0.000008   -0.000127    0.000007
     0.000124    0.000141    0.000010   -0.000091   -0.000071   -0.000006
     0.000015   -0.000020    0.000048   -0.000010    0.000012   -0.000146
    -0.000010    0.000505   -0.000047    0.000170   -0.000001    0.000019
    -0.000137   -0.000029   -0.000023    0.000051   -0.000028    0.000005
    -0.000035   -0.000051    0.000003   -0.000005    0.000048   -0.000016
    -0.000008    0.000560    0.000049    0.000167    0.000002   -0.000000
    -0.000091   -0.000117   -0.000004   -0.000006   -0.000011   -0.000006
     0.000105   -0.000016    0.000012   -0.000013   -0.000001   -0.000013
     0.000013   -0.000042   -0.000007   -0.000025   -0.000005   -0.000002
    -0.000001   -0.000030    0.000005   -0.000008   -0.000008   -0.000014
    -0.000011    0.000010    0.000001    0.000017    0.000001   -0.000001


    -0.000635   -0.000425   -0.000077   -0.001344    0.000020   -0.000070
    -0.000555    0.000662   -0.000021   -0.000111    0.000600    0.000014
    -0.000046   -0.000052    0.000694   -0.000077    0.000014    0.000028
     0.000616    0.000416    0.000042   -0.000204    0.000077   -0.000009
    -0.000139   -0.000154   -0.000002    0.000240    0.000200    0.000021
     0.000035    0.000010   -0.000067   -0.000000    0.000008    0.000012
    -0.001242    0.003662    0.000032    0.001700    0.000396    0.000062
     0.002709   -0.001211    0.000103    0.000994   -0.000825    0.000016
     0.000000    0.000162   -0.000257    0.000086   -0.000018    0.000537
    -0.008373    0.003161   -0.000092   -0.001488    0.002109   -0.000026
     0.003055   -0.021229   -0.000193    0.002275   -0.001029    0.000079
    -0.000103   -0.000169   -0.004706   -0.000014    0.000054    0.000172
     0.002062   -0.002222    0.000047   -0.002859   -0.000638   -0.000137
    -0.004581   -0.005144   -0.000326    0.002312    0.001537    0.000137
     0.000027   -0.000171    0.000153   -0.000064    0.000000   -0.000470
    -0.001791   -0.001353   -0.000114    0.000998    0.000120    0.000045
     0.001084    0.000846    0.000070   -0.001803   -0.000413   -0.000092
    -0.000080   -0.000069    0.000435    0.000016    0.000010   -0.000080
     0.058327   -0.001442    0.002006   -0.022523    0.008142   -0.000570
    -0.001442    0.052876    0.000774    0.006117   -0.011418    0.000137
     0.002006    0.000774    0.011095   -0.000672    0.000235   -0.004599
    -0.022523    0.006117   -0.000672    0.054086   -0.000044    0.001927
     0.008142   -0.011418    0.000235   -0.000044    0.060369    0.000994
    -0.000570    0.000137   -0.004599    0.001927    0.000994    0.009523
    -0.005108   -0.001524   -0.000287   -0.020146   -0.011190   -0.000901
    -0.004531    0.001392   -0.000191   -0.004234   -0.017634   -0.000448
    -0.000329   -0.000045    0.000529   -0.000748   -0.000748   -0.004714
    -0.001991    0.000172   -0.000067    0.004126   -0.001415    0.000123
     0.003334   -0.000008    0.000161   -0.005904   -0.004608   -0.000350
    -0.000026    0.000018   -0.000442    0.000030   -0.000172    0.000886
     0.000192   -0.001148   -0.000043   -0.000190   -0.000325   -0.000023
    -0.001029   -0.002610   -0.000092   -0.001670    0.000740   -0.000070
    -0.000011   -0.000116    0.000244   -0.000031    0.000025   -0.000070
    -0.005102   -0.002460   -0.000266    0.000577    0.000580    0.000026
    -0.000536    0.002875    0.000003    0.000262   -0.000929   -0.000014
    -0.000257    0.000029    0.000618    0.000000   -0.000010    0.000379
    -0.015163   -0.004638   -0.000483   -0.005504   -0.002658   -0.000325
    -0.007289   -0.015870   -0.000549   -0.000965    0.001606   -0.000021
    -0.000670   -0.000505   -0.005173   -0.000306   -0.000098    0.000709
    -0.001424   -0.000400   -0.000068    0.003055    0.000875    0.000147
     0.000199    0.000622    0.000012    0.000923   -0.000662    0.000031
    -0.000056   -0.000003    0.000025    0.000140    0.000034    0.000013
     0.000900    0.000106    0.000034   -0.001395   -0.000354   -0.000067
     0.001599    0.001103    0.000096   -0.003479   -0.000884   -0.000173
     0.000066    0.000040    0.000014   -0.000074   -0.000034    0.000035
     0.001015    0.001265    0.000076   -0.001788   -0.000474   -0.000080
    -0.000752   -0.000909   -0.000029    0.002274    0.000298    0.000094
    -0.000012   -0.000076   -0.000178   -0.000084    0.000018   -0.000057
    -0.000103   -0.000232   -0.000031   -0.000031    0.000012   -0.000005
     0.000077    0.000052   -0.000015   -0.000018   -0.000176   -0.000005
     0.000120    0.000090    0.000098   -0.000078   -0.000073   -0.000003
    -0.000095   -0.000189    0.000009    0.000137    0.000001    0.000006
     0.000090    0.000170   -0.000006    0.000024   -0.000039    0.000001
    -0.000015    0.000020    0.000005    0.000036    0.000004    0.000002
     0.000041    0.000056   -0.000001   -0.000064   -0.000002   -0.000003
    -0.000014   -0.000035    0.000001   -0.000013    0.000002    0.000001
    -0.000025   -0.000045    0.000011    0.000044   -0.000003    0.000004
     0.000023    0.000064   -0.000002   -0.000028    0.000008   -0.000001
    -0.000018   -0.000037    0.000003    0.000005   -0.000005   -0.000000
     0.000002    0.000006   -0.000009   -0.000019    0.000008    0.000001
     0.000093    0.000019    0.000017    0.000000   -0.000108   -0.000004
     0.000048   -0.000029    0.000006   -0.000055   -0.000047   -0.000005
     0.000022    0.000012   -0.000219   -0.000002   -0.000011    0.000024
     0.000031    0.000047   -0.000003    0.000101    0.000040    0.000003
    -0.000268    0.000167   -0.000011   -0.000111   -0.000095   -0.000006
    -0.000004    0.000008    0.000111   -0.000003   -0.000003    0.000051
    -0.000532    0.008763    0.000092   -0.019903    0.014769   -0.000165
     0.000094   -0.002030   -0.000061    0.014770   -0.093941   -0.001012
    -0.000079    0.000299    0.001321   -0.000171   -0.001027   -0.009699
    -0.000214   -0.001131   -0.000118   -0.005276    0.002859   -0.000215
    -0.000776   -0.000656   -0.000088   -0.005971    0.003077   -0.000215
    -0.000114   -0.000108    0.001886   -0.000393    0.000167    0.000930
     0.000174    0.000338    0.000023    0.000074    0.000393   -0.000057
     0.000410    0.000114    0.000023    0.000678   -0.001431   -0.000024
     0.000021    0.000026   -0.000214   -0.000043   -0.000035    0.001607
    -0.000996    0.001136   -0.000063   -0.000180   -0.000402   -0.000018
     0.000724   -0.000006   -0.000005    0.000066    0.000028    0.000003
    -0.000096    0.000017    0.001619    0.000020   -0.000007    0.000082
     0.002197   -0.006773   -0.000115    0.000475   -0.000528    0.000047
     0.001609   -0.004700   -0.000080    0.000588    0.000089    0.000050
     0.000119   -0.000413    0.000996    0.000066   -0.000010   -0.000877
    -0.000232   -0.000047    0.000003    0.000127    0.000125    0.000010
     0.000002   -0.000152    0.000002    0.000005    0.000030   -0.000001
    -0.000005   -0.000004   -0.000252    0.000007    0.000021   -0.000043
    -0.000030   -0.000006   -0.000003   -0.000065   -0.000001   -0.000004
    -0.000040   -0.000152   -0.000002   -0.000208   -0.000009   -0.000012
     0.000010    0.000001    0.000045    0.000018   -0.000003    0.000011
     0.000413    0.000622    0.000092    0.000126   -0.000383    0.000017
     0.000191    0.000443   -0.000002   -0.000080    0.000006   -0.000006
     0.000071    0.000231   -0.000038    0.000076    0.000030   -0.000027
     0.000395    0.000524   -0.000062   -0.000028   -0.000362   -0.000027
     0.000092    0.000271    0.000099    0.000062    0.000025    0.000022
    -0.000149   -0.000202   -0.000043    0.000053    0.000021   -0.000022
    -0.000043   -0.000057   -0.000009    0.000044    0.000017    0.000003
    -0.000015   -0.000038   -0.000000   -0.000025    0.000027   -0.000005
     0.000018    0.000035   -0.000003   -0.000026    0.000002   -0.000001


     0.000949    0.001304    0.000061    0.000759   -0.000455    0.000034
     0.000073    0.000769    0.000024    0.000866   -0.000564    0.000041
     0.000059    0.000089    0.000044    0.000074   -0.000033    0.000040
    -0.000392    0.000203   -0.000012    0.000104   -0.000247   -0.000004
     0.000053   -0.000344    0.000000   -0.000520   -0.000275   -0.000033
    -0.000017   -0.000000    0.000045   -0.000028   -0.000019    0.000450
    -0.000639   -0.000381   -0.000032    0.000563   -0.000386   -0.000010
    -0.000525   -0.001766   -0.000061   -0.001561    0.000566   -0.000058
    -0.000032   -0.000055   -0.000138   -0.000022   -0.000016    0.000457
     0.000625   -0.000143    0.000040   -0.004220   -0.001517   -0.000223
    -0.000186   -0.000340   -0.000011   -0.000349    0.001212    0.000007
     0.000029   -0.000013   -0.000166   -0.000214   -0.000059    0.000373
     0.000267    0.005084    0.000079   -0.024940    0.003646   -0.000772
     0.001772   -0.004606   -0.000034    0.005579   -0.008368    0.000150
     0.000016    0.000144    0.000630   -0.000774    0.000080   -0.004371
    -0.000728   -0.001147   -0.000063   -0.001196    0.004418    0.000010
     0.000459    0.002211    0.000059    0.002681   -0.002827    0.000050
    -0.000031   -0.000023    0.000332   -0.000028    0.000142    0.000477
    -0.005108   -0.004531   -0.000329   -0.001991    0.003334   -0.000026
    -0.001524    0.001392   -0.000045    0.000172   -0.000008    0.000018
    -0.000287   -0.000191    0.000529   -0.000067    0.000161   -0.000442
    -0.020146   -0.004234   -0.000748    0.004126   -0.005904    0.000030
    -0.011190   -0.017634   -0.000748   -0.001415   -0.004608   -0.000172
    -0.000901   -0.000448   -0.004714    0.000123   -0.000350    0.000886
     0.060879   -0.002898    0.002167   -0.011604    0.006586   -0.000177
    -0.002898    0.053521    0.000689   -0.000549   -0.025576   -0.000412
     0.002167    0.000689    0.010031   -0.000315   -0.000094   -0.004664
    -0.011604   -0.000549   -0.000315    0.056683    0.003178    0.002073
     0.006586   -0.025576   -0.000094    0.003178    0.057622    0.001017
    -0.000177   -0.000412   -0.004664    0.002073    0.001017    0.009072
     0.000237   -0.000736   -0.000000   -0.000669    0.000456   -0.000023
     0.000578    0.001323    0.000044    0.000905    0.000044    0.000053
     0.000031    0.000010    0.000012    0.000000    0.000020    0.000072
    -0.000502   -0.000360   -0.000036   -0.000178    0.000863    0.000002
    -0.000165   -0.000191   -0.000009   -0.000065   -0.000156   -0.000012
    -0.000022    0.000006    0.000058   -0.000021   -0.000000    0.000031
     0.000862    0.002325    0.000068    0.001298   -0.001724    0.000032
     0.000823    0.000804    0.000043    0.000538   -0.000588    0.000021
     0.000042    0.000112    0.000315    0.000081   -0.000080   -0.000133
    -0.001560   -0.003258   -0.000132   -0.001557    0.002036   -0.000030
    -0.000333   -0.000652   -0.000028   -0.000486   -0.000091   -0.000021
    -0.000072   -0.000150    0.000000   -0.000067    0.000083   -0.000039
     0.000496    0.001311    0.000054    0.000561   -0.000739   -0.000006
     0.001605    0.004175    0.000143    0.002234   -0.003034    0.000050
     0.000031    0.000070   -0.000028    0.000020   -0.000057    0.000023
     0.000655    0.002376    0.000069    0.000953   -0.002047    0.000009
    -0.000946   -0.003109   -0.000091   -0.001900    0.002064   -0.000047
     0.000018    0.000073    0.000058    0.000084   -0.000019   -0.000053
     0.000032   -0.000027   -0.000003    0.000079    0.000073    0.000004
     0.000100    0.000020    0.000018    0.000025   -0.000092   -0.000004
     0.000068    0.000090   -0.000009    0.000016   -0.000116   -0.000014
    -0.000079   -0.000169   -0.000016   -0.000025    0.000149    0.000009
     0.000028    0.000027    0.000007   -0.000056   -0.000103   -0.000006
    -0.000009   -0.000016   -0.000006   -0.000017    0.000010   -0.000014
     0.000033    0.000065    0.000004    0.000013   -0.000055    0.000000
    -0.000004   -0.000001   -0.000001    0.000013    0.000015    0.000001
    -0.000020   -0.000039   -0.000005   -0.000002    0.000037    0.000003
     0.000022    0.000045    0.000003    0.000000   -0.000040   -0.000001
    -0.000011   -0.000015   -0.000003    0.000008    0.000023    0.000002
     0.000006    0.000014    0.000005    0.000007   -0.000009    0.000002
    -0.000168   -0.000027   -0.000008    0.000104    0.000417    0.000011
     0.000070   -0.000012    0.000002   -0.000086   -0.000145   -0.000006
    -0.000008    0.000001    0.000008   -0.000001    0.000012    0.000046
     0.000002   -0.000144    0.000004    0.000297    0.000393    0.000059
     0.000173    0.000142    0.000012   -0.000637    0.000188   -0.000004
     0.000010    0.000002   -0.000133    0.000043    0.000030   -0.000889
     0.002577   -0.007251   -0.000093   -0.001020   -0.000741   -0.000131
     0.001816   -0.004394   -0.000036   -0.000977   -0.000303   -0.000084
     0.000090   -0.000430    0.001403   -0.000135   -0.000066    0.001626
    -0.088836    0.025102   -0.002983   -0.000470   -0.000067   -0.000061
     0.025099   -0.026134    0.000805    0.008822   -0.001739    0.000335
    -0.002984    0.000813   -0.010454    0.000114   -0.000052    0.000916
     0.002519    0.001809    0.000089   -0.063349   -0.039272   -0.003049
    -0.007352   -0.004332   -0.000422   -0.039110   -0.050368   -0.002452
    -0.000085   -0.000041    0.001283   -0.003047   -0.002451   -0.009232
    -0.000127    0.000117   -0.000014    0.000036    0.000019    0.000003
     0.000040   -0.000064   -0.000006   -0.000033   -0.000065   -0.000000
    -0.000010   -0.000003    0.000033    0.000001    0.000011    0.000006
     0.000027    0.000141    0.000012    0.000055   -0.000133   -0.000002
    -0.000126    0.000030    0.000001   -0.000023   -0.000040   -0.000004
     0.000009    0.000021   -0.000174    0.000004   -0.000018    0.000046
    -0.000049   -0.000099   -0.000002   -0.000038    0.000057   -0.000003
    -0.000014   -0.000150   -0.000003   -0.000061    0.000177    0.000002
    -0.000007   -0.000014   -0.000041   -0.000007    0.000012    0.000021
     0.000043    0.000064    0.000003    0.000074   -0.000058    0.000003
     0.000055    0.000117    0.000005    0.000117   -0.000022    0.000005
    -0.000007   -0.000029   -0.000006   -0.000035    0.000021   -0.000001
     0.000057   -0.000049   -0.000027   -0.000278   -0.000352   -0.000032
    -0.000006    0.000206    0.000012   -0.000056   -0.000259   -0.000012
    -0.000076   -0.000025    0.000023   -0.000144   -0.000077    0.000007
     0.000103    0.000064    0.000050   -0.000151   -0.000376   -0.000009
    -0.000062    0.000052   -0.000038   -0.000087   -0.000103   -0.000001
    -0.000038   -0.000144    0.000013    0.000013    0.000175    0.000013
    -0.000021   -0.000047   -0.000001   -0.000005    0.000048    0.000000
     0.000005    0.000018    0.000002    0.000026    0.000012    0.000000
     0.000011    0.000032    0.000001    0.000005   -0.000025   -0.000003


     0.002766   -0.003943    0.000002   -0.001774    0.000990   -0.000074
    -0.001377   -0.005425   -0.000206   -0.002025    0.001690   -0.000015
     0.000070   -0.000218    0.000225   -0.000168    0.000048    0.000549
    -0.000354    0.002434    0.000016    0.002038   -0.001821    0.000047
     0.000126   -0.000456   -0.000007    0.000037    0.000117    0.000022
    -0.000051    0.000090    0.000541    0.000070   -0.000079    0.000112
    -0.015598   -0.006468   -0.000594    0.001326   -0.001580    0.000016
    -0.006607   -0.012831   -0.000340   -0.000388   -0.004457   -0.000138
    -0.000586   -0.000407   -0.004395    0.000048   -0.000159    0.000211
    -0.004493   -0.001336   -0.000176    0.000753    0.001061    0.000083
    -0.000385    0.002168    0.000019    0.001627   -0.000844    0.000030
    -0.000168    0.000001   -0.000302    0.000061    0.000033   -0.000115
     0.000353    0.000964    0.000009   -0.000246   -0.000366   -0.000037
     0.000993   -0.000187    0.000001   -0.001881    0.000126   -0.000065
     0.000004    0.000028    0.000654   -0.000031   -0.000019   -0.000062
     0.000207   -0.000648   -0.000003   -0.001722    0.000731   -0.000057
    -0.000057    0.000220    0.000005    0.001073   -0.000816    0.000034
     0.000008   -0.000027   -0.000048   -0.000064    0.000012   -0.000031
     0.000192   -0.001029   -0.000011   -0.005102   -0.000536   -0.000257
    -0.001148   -0.002610   -0.000116   -0.002460    0.002875    0.000029
    -0.000043   -0.000092    0.000244   -0.000266    0.000003    0.000618
    -0.000190   -0.001670   -0.000031    0.000577    0.000262    0.000000
    -0.000325    0.000740    0.000025    0.000580   -0.000929   -0.000010
    -0.000023   -0.000070   -0.000070    0.000026   -0.000014    0.000379
     0.000237    0.000578    0.000031   -0.000502   -0.000165   -0.000022
    -0.000736    0.001323    0.000010   -0.000360   -0.000191    0.000006
    -0.000000    0.000044    0.000012   -0.000036   -0.000009    0.000058
    -0.000669    0.000905    0.000000   -0.000178   -0.000065   -0.000021
     0.000456    0.000044    0.000020    0.000863   -0.000156   -0.000000
    -0.000023    0.000053    0.000072    0.000002   -0.000012    0.000031
     0.054603   -0.001470    0.001800   -0.009838    0.002417   -0.000061
    -0.001470    0.051853    0.000623   -0.000411   -0.020754   -0.000499
     0.001800    0.000623    0.010288   -0.000289   -0.000176   -0.004891
    -0.009838   -0.000411   -0.000289    0.063782    0.001113    0.002535
     0.002417   -0.020754   -0.000176    0.001113    0.051793    0.001219
    -0.000061   -0.000499   -0.004891    0.002535    0.001219    0.008336
    -0.000597    0.004735    0.000032   -0.030629    0.005752   -0.001106
     0.003056   -0.001764    0.000075    0.009495   -0.011638    0.000158
     0.000043    0.000185    0.000588   -0.000901   -0.000009   -0.003323
    -0.002679    0.002258   -0.000034    0.000723   -0.001817   -0.000015
    -0.000788    0.000939    0.000008    0.000295   -0.000329    0.000010
    -0.000107    0.000103   -0.000381    0.000056   -0.000076   -0.000128
     0.000256    0.002322   -0.000001   -0.000553    0.000417   -0.000043
     0.004823   -0.003948    0.000103   -0.000761    0.002240    0.000006
     0.000032    0.000063    0.000406   -0.000027    0.000037    0.000211
    -0.021861    0.004117   -0.000604   -0.000918    0.002756    0.000014
     0.002877   -0.008316    0.000045    0.004145   -0.002739    0.000109
    -0.000639    0.000230   -0.004466   -0.000002   -0.000017    0.000565
    -0.002542   -0.001646   -0.000184   -0.000130   -0.000136   -0.000028
    -0.000258    0.001020    0.000108    0.000263   -0.000130    0.000064
    -0.000222   -0.000018    0.000344    0.000111    0.000003   -0.000144
     0.000077    0.000276    0.000029   -0.000028   -0.000312   -0.000005
    -0.000399   -0.000751   -0.000006    0.000081    0.000055    0.000001
    -0.000115   -0.000191    0.000081   -0.000062    0.000069   -0.000016
    -0.000048   -0.000112   -0.000012    0.000028    0.000072   -0.000005
     0.000055    0.000114    0.000003   -0.000008   -0.000034   -0.000004
     0.000052    0.000106   -0.000034   -0.000043   -0.000056    0.000022
    -0.000086   -0.000201    0.000006   -0.000002    0.000118    0.000013
     0.000102    0.000228   -0.000028   -0.000015   -0.000038    0.000003
    -0.000007   -0.000036    0.000010    0.000015    0.000010    0.000005
     0.000191   -0.000089    0.000004   -0.000009   -0.000185    0.000004
     0.000217   -0.000004    0.000011   -0.000017   -0.000176   -0.000005
     0.000003   -0.000003    0.000127    0.000008   -0.000012   -0.000167
     0.000019   -0.000056    0.000010   -0.000052   -0.000000   -0.000004
    -0.000098    0.000024    0.000005    0.000200    0.000100    0.000014
     0.000014    0.000004   -0.000219    0.000003    0.000002    0.000072
     0.000049   -0.000052   -0.000004   -0.000019   -0.000097    0.000002
     0.000072   -0.000112   -0.000004    0.000067    0.000174    0.000014
    -0.000008   -0.000002    0.000061    0.000002   -0.000007   -0.000103
    -0.000068   -0.000079   -0.000005   -0.000012   -0.000031    0.000007
[...]
 TransDip  -0.169 -0.003 -0.004    0.057  0.085  0.001    0.174  0.088  0.011

 Mode:                76                     77                     78
 Frequency:      1633.54                1669.01                1812.54
 Force Cnst:      8.5271                11.1038                18.4757
 Red. Mass:       5.4237                 6.7655                 9.5449
 IR Active:          YES                    YES                    YES
 IR Intens:       45.168                 49.809                434.337
 Raman Active:       YES                    YES                    YES
               X      Y      Z        X      Y      Z        X      Y      Z
 C         -0.021 -0.068 -0.002   -0.160  0.012 -0.007    0.002  0.001  0.000
 C         -0.154  0.045 -0.006    0.295 -0.043  0.013    0.001  0.000 -0.000
 C          0.057  0.071  0.003    0.104 -0.035  0.004   -0.002 -0.006 -0.000
 C          0.052  0.084  0.004   -0.122  0.060 -0.004   -0.001  0.004 -0.000
 C         -0.146 -0.005 -0.006    0.172 -0.119  0.005    0.001 -0.001 -0.000
 C          0.171 -0.093  0.006   -0.265  0.164 -0.009   -0.001  0.000 -0.000
 C         -0.024 -0.081 -0.003    0.188 -0.047  0.007   -0.002 -0.004  0.000
 C          0.160  0.101  0.009   -0.102  0.024 -0.004    0.001  0.000  0.000
 C         -0.110 -0.177 -0.008    0.030 -0.026  0.001   -0.000 -0.001 -0.000
 C          0.063  0.057  0.004   -0.096  0.075 -0.003   -0.000  0.002 -0.000
 C         -0.152 -0.004 -0.006   -0.113  0.060 -0.004    0.009  0.009  0.001
 C          0.202 -0.111  0.006    0.231 -0.133  0.007   -0.002 -0.003 -0.000
 C         -0.177  0.055 -0.006   -0.277  0.038 -0.011    0.003  0.002  0.000
 C          0.138  0.093  0.007    0.064 -0.012  0.003   -0.006  0.000 -0.001
 C         -0.106 -0.188 -0.006   -0.008 -0.003 -0.000    0.005  0.002 -0.001
 C          0.077  0.093  0.005    0.047 -0.003  0.002   -0.012 -0.012 -0.004
 C         -0.010  0.000 -0.000   -0.010  0.004  0.001   -0.057  0.036 -0.023
 C          0.001  0.001  0.006    0.002 -0.000 -0.001    0.473 -0.262  0.456
 O          0.000 -0.000 -0.001   -0.000  0.000  0.000   -0.036  0.021 -0.048
 O         -0.002  0.001 -0.003   -0.001  0.000 -0.000   -0.275  0.155 -0.308
 H          0.145  0.118  0.009   -0.260 -0.171 -0.015   -0.001 -0.001  0.001
 H         -0.114  0.266 -0.000    0.121 -0.325 -0.000   -0.000 -0.002  0.000
 H         -0.226  0.038 -0.009    0.100  0.072  0.006   -0.002  0.000  0.000
 H          0.038  0.271  0.007    0.041  0.006  0.002   -0.000 -0.000  0.000
 H          0.030  0.109  0.004    0.074 -0.135  0.000    0.001 -0.000  0.002
 H         -0.158  0.317  0.002   -0.120  0.284  0.002   -0.003 -0.005 -0.005
 H          0.168  0.139  0.011    0.293  0.162  0.017   -0.004  0.002 -0.000
 H         -0.174  0.041 -0.009   -0.058 -0.042 -0.004    0.012  0.003  0.005
 H          0.088  0.331  0.003    0.000  0.004  0.002    0.011  0.023  0.020
 H         -0.000 -0.081  0.049    0.028 -0.031  0.022    0.179 -0.053  0.036
 H          0.001 -0.057 -0.069    0.040 -0.016 -0.034   -0.178  0.035  0.020
 H          0.001 -0.001  0.002   -0.000 -0.000  0.002    0.001 -0.038  0.473
 TransDip   0.079  0.200  0.010   -0.051 -0.220 -0.007    0.454 -0.109  0.477

 Mode:                79                     80                     81
 Frequency:      3047.56                3088.66                3176.35
 Force Cnst:      5.7960                 6.1942                 6.4525
 Red. Mass:       1.0592                 1.1020                 1.0855
 IR Active:          YES                    YES                    YES
 IR Intens:       36.248                 15.218                 30.419
 Raman Active:       YES                    YES                    YES
               X      Y      Z        X      Y      Z        X      Y      Z
 C          0.000 -0.000  0.000   -0.000 -0.000 -0.000    0.001  0.000  0.000
 C         -0.000 -0.000 -0.000    0.000 -0.000 -0.000    0.008 -0.044 -0.000
 C         -0.001 -0.000 -0.000   -0.000  0.000 -0.000   -0.000  0.000 -0.000
 C          0.000 -0.000  0.000    0.000 -0.000  0.000   -0.000  0.000 -0.000
 C         -0.000 -0.000 -0.000   -0.000 -0.000 -0.000    0.001 -0.001  0.000
 C          0.000  0.000 -0.000    0.000  0.000  0.000    0.032  0.027  0.002
 C          0.000  0.000  0.000    0.000 -0.000  0.000    0.002  0.000  0.000
 C          0.000  0.000  0.000   -0.000  0.000  0.000   -0.005  0.023  0.000
 C          0.000  0.000  0.000    0.000  0.000 -0.000    0.016 -0.006  0.001
 C          0.000  0.000  0.000    0.000  0.000 -0.000   -0.018 -0.015 -0.001
 C          0.001 -0.001 -0.000    0.000 -0.000 -0.000    0.000  0.000  0.000
 C          0.001  0.002  0.000    0.002  0.002  0.000    0.009  0.009  0.001
 C         -0.000 -0.000  0.000    0.000 -0.000 -0.000    0.008 -0.039 -0.001
 C         -0.001 -0.000 -0.000    0.000 -0.000  0.000   -0.002  0.009 -0.000
 C          0.001  0.001  0.000   -0.000  0.000  0.001    0.002 -0.001  0.000
 C         -0.002 -0.002  0.000    0.000 -0.000 -0.000    0.000  0.000 -0.000
 C          0.007 -0.059 -0.033    0.010 -0.031  0.086   -0.000  0.000 -0.001
 C         -0.001  0.000 -0.000    0.000 -0.000  0.002   -0.000  0.000 -0.000
 O         -0.000 -0.000  0.000    0.000  0.000 -0.001    0.000  0.000 -0.000
 O          0.000 -0.000  0.000   -0.000 -0.000 -0.001    0.000 -0.000  0.000
 H          0.000 -0.001 -0.000   -0.000  0.001  0.000   -0.101  0.527  0.003
 H         -0.001 -0.000 -0.000   -0.001 -0.001 -0.000   -0.382 -0.323 -0.022
 H          0.000 -0.000  0.000   -0.000 -0.000  0.000    0.051 -0.272 -0.003
 H         -0.001  0.001 -0.000   -0.000  0.000 -0.000   -0.196  0.069 -0.007
 H         -0.003 -0.002 -0.000   -0.001 -0.001  0.000    0.208  0.179  0.012
 H         -0.015 -0.013 -0.002   -0.024 -0.022 -0.002   -0.120 -0.108 -0.009
 H         -0.000  0.001 -0.000   -0.000  0.003 -0.000   -0.088  0.460  0.008
 H         -0.000  0.001  0.000   -0.000  0.002 -0.001    0.020 -0.109  0.000
 H         -0.004  0.001 -0.000    0.000  0.000 -0.000   -0.029  0.011 -0.002
 H          0.021  0.351  0.769   -0.010 -0.234 -0.464   -0.000  0.001  0.001
 H         -0.070  0.368 -0.374   -0.114  0.611 -0.578    0.001 -0.006  0.005
 H         -0.001  0.000 -0.001    0.000  0.002 -0.001    0.000 -0.000  0.000
 TransDip  -0.139 -0.124 -0.050    0.038 -0.055  0.106    0.169 -0.052  0.005

 Mode:                82                     83                     84
 Frequency:      3177.50                3179.27                3183.11
 Force Cnst:      6.4648                 6.4719                 6.4986
 Red. Mass:       1.0868                 1.0867                 1.0886
 IR Active:          YES                    YES                    YES
 IR Intens:        3.578                 10.415                 32.772
 Raman Active:       YES                    YES                    YES
               X      Y      Z        X      Y      Z        X      Y      Z
 C         -0.001  0.000 -0.000    0.001  0.000  0.000   -0.003 -0.001 -0.000
 C         -0.007  0.037  0.000    0.003 -0.017 -0.000   -0.000 -0.001 -0.000
 C          0.000 -0.001 -0.000   -0.000 -0.000 -0.000   -0.000  0.001  0.000
 C          0.000  0.000  0.000   -0.001  0.000 -0.000    0.000  0.000  0.000
 C         -0.000  0.000 -0.000   -0.001  0.001 -0.000    0.001 -0.001  0.000
 C         -0.026 -0.022 -0.002    0.007  0.006  0.000    0.010  0.008  0.001
 C          0.002  0.000  0.000   -0.000 -0.000 -0.000   -0.001 -0.000 -0.000
 C         -0.005  0.024  0.000    0.008 -0.038 -0.000    0.005 -0.024 -0.000
 C          0.008 -0.004  0.000   -0.035  0.012 -0.001   -0.001  0.002  0.000
 C          0.000  0.001  0.000    0.039  0.032  0.002   -0.018 -0.015 -0.001
 C          0.000  0.000  0.000    0.000  0.000  0.000    0.000 -0.000 -0.000
 C          0.012  0.013  0.001    0.009  0.009  0.001    0.002  0.002  0.000
 C          0.011 -0.057 -0.001    0.007 -0.034 -0.001    0.001 -0.004 -0.000
 C          0.002 -0.011  0.000   -0.001  0.002 -0.000    0.015 -0.072  0.000
 C         -0.002  0.002 -0.000    0.000 -0.000  0.000   -0.021  0.010 -0.001
 C          0.000 -0.000 -0.000    0.000 -0.000  0.000   -0.000 -0.000 -0.000
 C         -0.000  0.001 -0.001   -0.000  0.000 -0.000   -0.000  0.000 -0.000
 C         -0.000  0.000  0.000   -0.000  0.000  0.000    0.000  0.000 -0.000
 O          0.000  0.000 -0.000    0.000  0.000 -0.000    0.000 -0.000 -0.000
 O          0.000 -0.000  0.000    0.000  0.000  0.000   -0.000 -0.000  0.000
 H          0.084 -0.438 -0.002   -0.037  0.193  0.001   -0.001  0.022  0.000
 H          0.310  0.263  0.018   -0.082 -0.072 -0.005   -0.112 -0.094 -0.007
 H          0.053 -0.285 -0.003   -0.088  0.450  0.005   -0.054  0.283  0.003
 H         -0.105  0.037 -0.004    0.419 -0.147  0.016    0.011 -0.006  0.000
 H         -0.005 -0.005 -0.000   -0.446 -0.378 -0.026    0.206  0.176  0.012
 H         -0.168 -0.151 -0.012   -0.116 -0.104 -0.008   -0.023 -0.021 -0.002
 H         -0.128  0.668  0.011   -0.075  0.402  0.007   -0.008  0.045  0.001
 H         -0.023  0.125 -0.000    0.004 -0.025  0.000   -0.163  0.839 -0.003
 H          0.031 -0.012  0.002   -0.005  0.002 -0.000    0.264 -0.103  0.015
 H         -0.000  0.000 -0.000   -0.000 -0.000 -0.001    0.000  0.001  0.002
 H          0.002 -0.008  0.007    0.001 -0.006  0.006    0.001 -0.001  0.001
 H          0.000 -0.000  0.000    0.000 -0.000  0.000   -0.000  0.000 -0.000
 TransDip   0.059 -0.013  0.001    0.097 -0.035  0.002   -0.027 -0.181 -0.002

 Mode:                85                     86                     87
 Frequency:      3185.41                3196.24                3205.16
 Force Cnst:      6.5174                 6.5943                 6.6315
 Red. Mass:       1.0902                 1.0956                 1.0956
 IR Active:          YES                    YES                    YES
 IR Intens:       13.290                 24.782                 44.873
 Raman Active:       YES                    YES                    YES
               X      Y      Z        X      Y      Z        X      Y      Z
 C          0.001  0.000  0.000    0.002  0.001  0.000   -0.000  0.000 -0.000
 C         -0.002  0.012  0.000    0.015 -0.058 -0.000    0.001 -0.003  0.000
 C         -0.000 -0.001 -0.000   -0.000  0.000 -0.000    0.000  0.000  0.000
 C          0.001  0.001  0.000    0.000  0.000  0.000   -0.000 -0.000  0.000
 C          0.001 -0.001  0.000   -0.001  0.002 -0.000    0.001 -0.001  0.000
 C         -0.006 -0.005 -0.000   -0.052 -0.039 -0.003   -0.004 -0.003 -0.000
 C         -0.002  0.000 -0.000   -0.000  0.000  0.000    0.002  0.000  0.000
 C          0.011 -0.054 -0.001    0.001 -0.004 -0.000   -0.004  0.032  0.000
 C         -0.000  0.004  0.000    0.007 -0.002  0.000   -0.071  0.025 -0.003
 C         -0.040 -0.034 -0.002   -0.004 -0.003 -0.000   -0.023 -0.023 -0.001
 C         -0.000 -0.000 -0.000    0.000  0.000  0.000   -0.000  0.000 -0.000
 C          0.004  0.005  0.000   -0.002 -0.002 -0.000   -0.011 -0.010 -0.001
 C          0.003 -0.015 -0.000   -0.000 -0.000 -0.000    0.001 -0.004 -0.000
 C         -0.006  0.031 -0.000    0.001 -0.005  0.000    0.000 -0.000  0.000
 C          0.010 -0.005  0.001   -0.004  0.002 -0.000   -0.001  0.000 -0.000
 C          0.000  0.000 -0.000    0.000 -0.000  0.000    0.000 -0.000  0.000
 C         -0.000  0.000 -0.000   -0.000 -0.000  0.000    0.000 -0.000  0.000
 C         -0.000  0.000  0.000    0.000 -0.000 -0.000    0.000 -0.000  0.000
 O          0.000  0.000 -0.000   -0.000 -0.000  0.000   -0.000 -0.000  0.000
 O          0.000  0.000  0.000   -0.000 -0.000 -0.000   -0.000  0.000 -0.000
 H          0.026 -0.143 -0.001   -0.129  0.653  0.003   -0.006  0.030  0.000
 H          0.071  0.063  0.004    0.558  0.467  0.033    0.037  0.032  0.002
 H         -0.121  0.628  0.007   -0.008  0.043  0.001    0.062 -0.341 -0.004
 H          0.015 -0.010  0.000   -0.074  0.025 -0.003    0.797 -0.279  0.030
 H          0.463  0.393  0.027    0.042  0.033  0.002    0.264  0.229  0.016
 H         -0.051 -0.047 -0.004    0.024  0.021  0.002    0.130  0.115  0.009
 H         -0.031  0.178  0.003   -0.001  0.003  0.000   -0.009  0.039  0.001
 H          0.069 -0.351  0.001   -0.013  0.060 -0.000   -0.000  0.001 -0.000
 H         -0.123  0.048 -0.007    0.050 -0.020  0.003    0.010 -0.004  0.001
 H          0.001  0.001  0.001   -0.000  0.000  0.001   -0.000  0.001  0.002
 H          0.001 -0.000  0.000   -0.000  0.002 -0.001   -0.001  0.006 -0.006
 H          0.000 -0.000  0.000   -0.000  0.000 -0.000   -0.000  0.000 -0.000
 TransDip  -0.010 -0.116 -0.005   -0.058 -0.148 -0.004   -0.206  0.058 -0.007

 Mode:                88                     89                     90
 Frequency:      3207.93                3209.31                3677.75
 Force Cnst:      6.6242                 6.6296                 8.4814
 Red. Mass:       1.0925                 1.0925                 1.0643
 IR Active:          YES                    YES                    YES
 IR Intens:        3.357                 15.783                 88.180
 Raman Active:       YES                    YES                    YES
               X      Y      Z        X      Y      Z        X      Y      Z
 C         -0.000  0.000 -0.000    0.002 -0.000  0.000    0.000  0.000  0.000
 C         -0.001  0.001 -0.000   -0.001  0.003  0.000   -0.000 -0.000 -0.000
 C          0.001  0.000  0.000    0.000 -0.000  0.000   -0.000 -0.000 -0.000
 C         -0.000  0.000 -0.000    0.000 -0.000  0.000    0.000  0.000  0.000
 C         -0.000  0.001  0.000   -0.000  0.000 -0.000    0.000 -0.000 -0.000
 C          0.003  0.002  0.000    0.002  0.001  0.000   -0.000 -0.000  0.000
 C          0.001  0.001  0.000    0.000  0.000  0.000   -0.000 -0.000 -0.000
 C          0.001 -0.007 -0.000    0.000 -0.002 -0.000    0.000  0.000  0.000
 C          0.012 -0.004  0.000    0.003 -0.001  0.000   -0.000 -0.000 -0.000
 C          0.004  0.004  0.000    0.001  0.000  0.000   -0.000  0.000  0.000
 C         -0.001  0.002  0.000    0.001 -0.000  0.000   -0.000  0.000  0.000
 C         -0.061 -0.051 -0.004   -0.011 -0.009 -0.001   -0.000 -0.000 -0.000
 C          0.008 -0.029 -0.000    0.002 -0.005 -0.000    0.000  0.000  0.000
 C          0.001 -0.006  0.000   -0.003  0.028 -0.000   -0.000 -0.000 -0.000
 C          0.014 -0.005  0.001   -0.076  0.028 -0.004   -0.000  0.000  0.000
 C         -0.001  0.000 -0.000   -0.000 -0.003 -0.000   -0.000 -0.000 -0.000
 C          0.000 -0.002  0.002   -0.000 -0.000  0.000    0.001 -0.000  0.000
 C          0.000  0.000  0.000    0.000  0.000  0.000   -0.003  0.001  0.001
 O         -0.000  0.000  0.000    0.000 -0.000 -0.000   -0.055  0.027  0.006
 O         -0.000  0.000 -0.000   -0.000 -0.000 -0.000   -0.000  0.000 -0.001
 H          0.003 -0.015 -0.000    0.006 -0.033 -0.000   -0.000  0.000 -0.000
 H         -0.027 -0.023 -0.002   -0.018 -0.014 -0.001    0.000  0.000  0.000
 H         -0.014  0.075  0.001   -0.004  0.021  0.000    0.000 -0.000  0.000
 H         -0.131  0.045 -0.005   -0.030  0.011 -0.001    0.000 -0.000  0.000
 H         -0.049 -0.042 -0.003   -0.007 -0.006 -0.000    0.000  0.000  0.000
 H          0.683  0.601  0.048    0.118  0.104  0.008    0.000  0.000  0.000
 H         -0.062  0.311  0.005   -0.012  0.059  0.001    0.000 -0.000 -0.000
 H         -0.011  0.060 -0.000    0.056 -0.305  0.001   -0.000  0.000  0.000
 H         -0.153  0.057 -0.009    0.869 -0.327  0.049    0.000 -0.001  0.000
 H         -0.000 -0.001  0.001    0.001  0.002  0.003   -0.001  0.000  0.001
 H         -0.006  0.025 -0.023   -0.000  0.006 -0.005    0.001 -0.000 -0.001
 H         -0.000 -0.000 -0.000   -0.000  0.000 -0.000    0.893 -0.436 -0.091
 TransDip  -0.041 -0.042 -0.002   -0.106  0.070  0.001    0.274 -0.082 -0.094

 STANDARD THERMODYNAMIC QUANTITIES AT   298.15 K  AND     1.00 ATM

   This Molecule has  4 Imaginary Frequencies
   Zero point vibrational energy:      154.239 kcal/mol

   Atom    1 Element C  Has Mass   12.00000
   Atom    2 Element C  Has Mass   12.00000
   Atom    3 Element C  Has Mass   12.00000
   Atom    4 Element C  Has Mass   12.00000
   Atom    5 Element C  Has Mass   12.00000
   Atom    6 Element C  Has Mass   12.00000
   Atom    7 Element C  Has Mass   12.00000
   Atom    8 Element C  Has Mass   12.00000
   Atom    9 Element C  Has Mass   12.00000
   Atom   10 Element C  Has Mass   12.00000
   Atom   11 Element C  Has Mass   12.00000
   Atom   12 Element C  Has Mass   12.00000
   Atom   13 Element C  Has Mass   12.00000
   Atom   14 Element C  Has Mass   12.00000
   Atom   15 Element C  Has Mass   12.00000
   Atom   16 Element C  Has Mass   12.00000
   Atom   17 Element C  Has Mass   12.00000
   Atom   18 Element C  Has Mass   12.00000
   Atom   19 Element O  Has Mass   15.99491
   Atom   20 Element O  Has Mass   15.99491
   Atom   21 Element H  Has Mass    1.00783
   Atom   22 Element H  Has Mass    1.00783
   Atom   23 Element H  Has Mass    1.00783
   Atom   24 Element H  Has Mass    1.00783
   Atom   25 Element H  Has Mass    1.00783
   Atom   26 Element H  Has Mass    1.00783
   Atom   27 Element H  Has Mass    1.00783
   Atom   28 Element H  Has Mass    1.00783
   Atom   29 Element H  Has Mass    1.00783
   Atom   30 Element H  Has Mass    1.00783
   Atom   31 Element H  Has Mass    1.00783
   Atom   32 Element H  Has Mass    1.00783
   Molecular Mass:   260.083780 amu
   Principal axes and moments of inertia in amu*Bohr^2:
                             1           2           3
    Eigenvalues --     2209.60306  8491.96851 10374.28939
          X               1.00000    -0.00007    -0.00110
          Y               0.00007     1.00000     0.00278
          Z               0.00110    -0.00278     1.00000
   Rotational Symmetry Number is   1
   The Molecule is an Asymmetric Top
   Translational Enthalpy:        0.889 kcal/mol
   Rotational Enthalpy:           0.889 kcal/mol
   Vibrational Enthalpy:        160.116 kcal/mol
   gas constant (RT):             0.592 kcal/mol
   Translational Entropy:        42.567  cal/mol.K
   Rotational Entropy:           33.631  cal/mol.K
   Vibrational Entropy:          31.687  cal/mol.K

   Total Enthalpy:              162.485 kcal/mol
   Total Entropy:               107.885  cal/mol.K
Archival summary:
1\1\qnode0272\FREQ\ProcedureUnspecified\6-31+G*\21812\ckw3571\ThuNov1001:28:092022ThuNov1001:28:092022\0\\#,FREQ,ProcedureUnspecified,6-31+G*,\\0,1\C\C,1,1.42898\C,2,1.40144,1,118.673\H,3,1.08757,2,119.415,1,179.488,0\C,3,1.39319,2,120.884,1,-0.406835,0\H,5,1.08615,3,118.555,2,179.154,0\C,5,1.39825,3,121.654,2,-0.303074,0\C,7,1.41761,5,119.222,3,0.991125,0\C,1,1.42975,2,119.455,3,-179.466,0\C,9,1.42812,1,120.259,2,179.553,0\C,10,1.40604,9,119.396,1,-179.993,0\H,11,1.08772,10,119.173,9,179.99,0\C,11,1.39435,10,120.653,9,-0.00481731,0\H,13,1.087,11,119.83,10,-179.978,0\C,13,1.39582,11,120.418,10,0.0768922,0\H,15,1.08782,13,119.986,11,179.872,0\C,15,1.40515,13,120.9,11,-0.0501657,0\C,10,1.43494,9,118.298,1,-0.126806,0\H,18,1.08785,10,118.476,9,-179.636,0\C,18,1.3642,10,121.521,9,0.329747,0\H,20,1.08526,18,118.785,10,-179.656,0\C,2,1.43808,1,119.145,3,179.812,0\H,22,1.08777,2,118.306,1,179.923,0\C,22,1.36225,2,121.28,1,-0.115808,0\H,24,1.08773,22,120.43,2,-179.985,0\C,7,1.5264,5,121.239,3,179.693,0\H,26,1.0948,7,109.923,5,133.636,0\H,26,1.0966,7,110.122,5,-107.513,0\C,26,1.51381,7,114.123,5,12.5077,0\O,29,1.21284,26,125.742,7,-92.6913,0\O,29,1.35796,26,111.971,7,87.2613,0\H,31,0.97617,29,107.152,26,-179.107,0\\\@

 Total job time:  11001.38s(wall), 10973.80s(cpu) 
 Thu Nov 10 01:28:09 2022

        *************************************************************
        *                                                           *
        *  Thank you very much for using Q-Chem.  Have a nice day.  *
        *                                                           *
        *************************************************************


