
Running Job 1 of 1 PAA_Yue_force.in
qchem PAA_Yue_force.in_131808.0 /tmp/qchem131808/ 0
/software/QChem/5.3/exe/qcprog.exe_s PAA_Yue_force.in_131808.0 /tmp/qchem131808/
                  Welcome to Q-Chem
     A Quantum Leap Into The Future Of Chemistry


 Q-Chem 5.3, Q-Chem, Inc., Pleasanton, CA (2020)

 License issued to: SRG Mark Ratner, Northwestern University

 Yihan Shao,  Zhengting Gan,  E. Epifanovsky,  A. T. B. Gilbert,  M. Wormit,  
 J. Kussmann,  A. W. Lange,  A. Behn,  Jia Deng,  Xintian Feng,  D. Ghosh,  
 M. Goldey,  P. R. Horn,  L. D. Jacobson,  I. Kaliman,  T. Kus,  A. Landau,  
 Jie Liu,  E. I. Proynov,  R. M. Richard,  R. P. Steele,  E. J. Sundstrom,  
 H. L. Woodcock III,  P. M. Zimmerman,  D. Zuev,  B. Alam,  B. Albrecht,  
 A. Aldossary,  E. Alguire,  S. A. Baeppler,  D. Barton,  Z. Benda,  
 Y. A. Bernard,  E. J. Berquist,  K. B. Bravaya,  H. Burton,  K. Carter-Fenk,  
 D. Casanova,  Chun-Min Chang,  Yunqing Chen,  A. Chien,  K. D. Closser,  
 M. P. Coons,  S. Coriani,  S. Dasgupta,  A. L. Dempwolff,  M. Diedenhofen,  
 Hainam Do,  R. G. Edgar,  Po-Tung Fang,  S. Faraji,  S. Fatehi,  
 Qingguo Feng,  J. Fosso-Tande,  J. Gayvert,  Qinghui Ge,  A. Ghysels,  
 G. Gidofalvi,  J. Gomes,  J. Gonthier,  S. Gulania,  A. Gunina,  D. Hait,  
 M. W. D. Hanson-Heine,  S. Hammes-Schiffer,  P. H. P. Harbach,  
 A. W. Hauser,  M. F. Herbst,  J. E. Herr,  E. G. Hohenstein,  Z. C. Holden,  
 S. Houck,  Kerwin Hui,  B. C. Huynh,  M. Ivanov,  T.-C. Jagau,  Hyunjun Ji,  
 B. Kaduk,  K. Khistyaev,  Jaehoon Kim,  P. Klunzinger,  K. Koh,  
 D. Kosenkov,  L. Koulias,  T. Kowalczyk,  C. M. Krauter,  A. Kunitsa,  
 Ka Un Lao,  A. Laurent,  K. V. Lawler,  Joonho Lee,  D. Lefrancois,  
 S. Lehtola,  D. S. Levine,  Yi-Pei Li,  You-Sheng Lin,  Fenglai Liu,  
 Kuan-Yu Liu,  E. Livshits,  M. Loipersberger,  A. Luenser,  P. Manohar,  
 E. Mansoor,  S. F. Manzer,  Shan-Ping Mao,  Yuezhi Mao,  N. Mardirossian,  
 A. V. Marenich,  T. Markovich,  L. A. Martinez-Martinez,  S. A. Maurer,  
 N. J. Mayhall,  S. C. McKenzie,  J.-M. Mewes,  P. Morgante,  A. F. Morrison,  
 J. W. Mullinax,  K. Nanda,  T. S. Nguyen-Beck,  R. Olivares-Amaya,  
 K. J. Oosterbaan,  J. A. Parkhill,  S. K. Paul,  F. Pavosevic,  Zheng Pei,  
 T. M. Perrine,  F. Plasser,  P. Pokhilko,  S. Prager,  A. Prociuk,  
 E. Ramos,  B. Rana,  D. R. Rehn,  F. Rob,  E. Rossomme,  M. Scheurer,  
 M. Schneider,  N. Sergueev,  S. M. Sharada,  S. Sharma,  W. Skomorowski,  
 D. W. Small,  T. Stauch,  C. J. Stein,  T. Stein,  Yu-Chuan Su,  
 S. P. Veccham,  Zhen Tao,  A. J. W. Thom,  A. Tkatchenko,  T. Tsuchimochi,  
 N. M. Tubman,  L. Vogt,  M. L. Vidal,  O. Vydrov,  M. A. Watson,  J. Wenzel,  
 M. de Wergifosse,  T. A. Wesolowski,  A. White,  J. Witte,  A. Yamada,  
 Jun Yang,  K. Yao,  S. Yeganeh,  S. R. Yost,  Zhi-Qiang You,  A. Zech,  
 Igor Ying Zhang,  Xing Zhang,  Yan Zhao,  Ying Zhu,  B. R. Brooks,  
 G. K. L. Chan,  C. J. Cramer,  M. S. Gordon,  W. J. Hehre,  A. Klamt,  
 M. W. Schmidt,  C. D. Sherrill,  D. G. Truhlar,  A. Aspuru-Guzik,  R. Baer,  
 A. T. Bell,  N. A. Besley,  Jeng-Da Chai,  A. E. DePrince, III,  
 R. A. DiStasio Jr.,  A. Dreuw,  B. D. Dunietz,  T. R. Furlani,  
 Chao-Ping Hsu,  Yousung Jung,  Jing Kong,  D. S. Lambrecht,  WanZhen Liang,  
 C. Ochsenfeld,  V. A. Rassolov,  L. V. Slipchenko,  J. E. Subotnik,  
 T. Van Voorhis,  J. M. Herbert,  A. I. Krylov,  P. M. W. Gill,  M. Head-Gordon

 Contributors to earlier versions of Q-Chem not listed above: 
 R. D. Adamson,  B. Austin,  J. Baker,  G. J. O. Beran,  K. Brandhorst,  
 S. T. Brown,  E. F. C. Byrd,  A. K. Chakraborty,  C.-L. Cheng,  
 Siu Hung Chien,  D. M. Chipman,  D. L. Crittenden,  H. Dachsel,  
 R. J. Doerksen,  A. D. Dutoi,  L. Fusti-Molnar,  W. A. Goddard III,  
 A. Golubeva-Zadorozhnaya,  S. R. Gwaltney,  G. Hawkins,  A. Heyden,  
 S. Hirata,  G. Kedziora,  F. J. Keil,  C. Kelley,  Jihan Kim,  R. A. King,  
 R. Z. Khaliullin,  P. P. Korambath,  W. Kurlancheek,  A. M. Lee,  M. S. Lee,  
 S. V. Levchenko,  Ching Yeh Lin,  D. Liotard,  R. C. Lochan,  I. Lotan,  
 P. E. Maslen,  N. Nair,  D. P. O'Neill,  D. Neuhauser,  E. Neuscamman,  
 C. M. Oana,  R. Olson,  B. Peters,  R. Peverati,  P. A. Pieniazek,  
 Y. M. Rhee,  J. Ritchie,  M. A. Rohrdanz,  E. Rosta,  N. J. Russ,  
 H. F. Schaefer III,  N. E. Schultz,  N. Shenvi,  A. C. Simmonett,  A. Sodt,  
 D. Stuck,  K. S. Thanthiriwatte,  V. Vanovschi,  Tao Wang,  A. Warshel,  
 C. F. Williams,  Q. Wu,  X. Xu,  W. Zhang

 Please cite Q-Chem as follows:
 Y. Shao et al., Mol. Phys. 113, 184-215 (2015)
 DOI: 10.1080/00268976.2014.952696

 Q-Chem 5.3.1 for Intel X86 EM64T Linux

 Parts of Q-Chem use Armadillo 9.800.1 (Horizon Scraper).
 http://arma.sourceforge.net/

 Q-Chem begins on Mon Jun 27 20:10:50 2022  

Host: 
0

     Scratch files written to /tmp/qchem131808//
 Aug2920 |scratch|qcdevops|jenkins|workspace|build_RNUM 4082   
Processing $rem in /software/QChem/5.3/config/preferences:
Processing $rem in /home/ckw3571/.qchemrc:

Checking the input file for inconsistencies... 	...done.

--------------------------------------------------------------
User input:
--------------------------------------------------------------
$molecule
0 1
C   -0.3112006   -1.7755123    0.0438120
C   -1.4226004   -2.6858260   -0.0208651
C   -0.5631930   -0.3689484    0.0508672
C   -1.9115372    0.1040099    0.0011853
C   -2.9981292   -0.8242588   -0.0625742
C   -2.7061387   -2.2324483   -0.0729420
C   -2.1834580    1.5059152    0.0169977
C   -3.5162721    1.9510063   -0.0323999
C   -4.5685884    1.0384577   -0.0964623
C   -4.3140443   -0.3338783   -0.1109350
C    0.5272995    0.5581968    0.1097786
C    0.2133166    1.9638718    0.1296992
C   -1.0739938    2.4133026    0.0863118
C    1.0161092   -2.2211525    0.1044458
C    2.0727860   -1.3150048    0.1619247
C    1.8560702    0.0663341    0.1552775
C    3.0205614    1.0506752    0.2255833
C    4.3782172    0.4200078    0.0005315
O    4.7020444    0.3678572   -1.3172159
O    5.1162848   -0.0005614    0.8661804
H   -1.2150919   -3.7536009   -0.0267507
H   -3.5364750   -2.9334188   -0.1213274
H   -3.7192353    3.0195460   -0.0199965
H   -5.5939328    1.3973419   -0.1345010
H   -5.1404513   -1.0396430   -0.1589284
H    1.0184350    2.6892972    0.1873674
H   -1.2780732    3.4816804    0.1045893
H    1.2213122   -3.2891770    0.1082649
H    3.0858840   -1.7019701    0.2219590
H    3.0530437    1.5267416    1.2129200
H    2.8900629    1.8371580   -0.5247446
H    5.5766629   -0.0608089   -1.3819852
$end

$rem
BASIS  =  6-31+G*
CIS_N_ROOTS  =  10
CIS_STATE_DERIVATIVE  =  2
CIS_TRIPLETS  =  0
EXCHANGE  =  B3LYP
JOB_TYPE  =  Force
$end
--------------------------------------------------------------
 ----------------------------------------------------------------
             Standard Nuclear Orientation (Angstroms)
    I     Atom           X                Y                Z
 ----------------------------------------------------------------
    1      C      -0.3112006158    -1.7755123046     0.0438120080
    2      C      -1.4226004194    -2.6858260003    -0.0208650903
    3      C      -0.5631930103    -0.3689484036     0.0508672051
    4      C      -1.9115372084     0.1040099016     0.0011853040
    5      C      -2.9981292121    -0.8242587942    -0.0625741942
    6      C      -2.7061387176    -2.2324482954    -0.0729419913
    7      C      -2.1834580029     1.5059152027     0.0169977011
    8      C      -3.5162721012     1.9510063078    -0.0323998999
    9      C      -4.5685884047     1.0384577118    -0.0964622982
   10      C      -4.3140443101    -0.3338782892    -0.1109349954
   11      C       0.5272994934     0.5581967923     0.1097786033
   12      C       0.2133165989     1.9638717935     0.1296992004
   13      C      -1.0739937994     2.4133025985     0.0863117994
   14      C       1.0161091825    -2.2211525097     0.1044458090
   15      C       2.0727859860    -1.3150048137     0.1619247073
   16      C       1.8560701914     0.0663340872     0.1552775045
   17      C       3.0205613953     1.0506751827     0.2255833026
   18      C       4.3782171928     0.4200077769     0.0005315040
   19      O       4.7020443928     0.3678571730    -1.3172158958
   20      O       5.1162847911    -0.0005614242     0.8661804050
   21      H      -1.2150919235    -3.7536009012    -0.0267506881
   22      H      -3.5364750203    -2.9334187923    -0.1213273900
   23      H      -3.7192352970     3.0195460087    -0.0199965021
   24      H      -5.5939328033     1.3973419158    -0.1345009990
   25      H      -5.1404513129    -1.0396429860    -0.1589283940
   26      H       1.0184350017     2.6892971905     0.1873673990
   27      H      -1.2780731952     3.4816803993     0.1045892972
   28      H       1.2213121783    -3.2891770105     0.1082649112
   29      H       3.0858839845    -1.7019701175     0.2219590082
   30      H       3.0530436970     1.5267415846     1.2129200016
   31      H       2.8900628984     1.8371579817    -0.5247445990
   32      H       5.5766628911    -0.0608089306    -1.3819851949
 ----------------------------------------------------------------
 Molecular Point Group                 C1    NOp =  1
 Largest Abelian Subgroup              C1    NOp =  1
 Nuclear Repulsion Energy =        1392.17556117 hartrees
 There are       68 alpha and       68 beta electrons
 Requested basis set is 6-31+G(d)
 There are 124 shells and 404 basis functions

 Total QAlloc Memory Limit   8000 MB
 Mega-Array Size       188 MB
 MEM_STATIC part       192 MB
 A cutoff of  1.0D-11 yielded   5911 shell pairs
 There are     67066 function pairs
 Smallest overlap matrix eigenvalue = 8.62E-09

 Q-Chem warning in module stvman/mkSTV.C, line 318:

 Overlap eigenvalue is smaller than square root of threshold
 Use THRESH >= 12 to get rid of this warning

 Linear dependence detected in AO basis
 Tighter screening thresholds may be required for diffuse basis sets
 Use S2THRESH > 14 and THRESH = 14 in case of SCF convergence issues
 Number of orthogonalized atomic orbitals = 394
 Maximum deviation from orthogonality = 2.684E-10

 Scale SEOQF with 1.000000e-02/1.000000e-01/1.000000e-01

 Standard Electronic Orientation quadrupole field applied
 Nucleus-field energy     =     0.0000000248 hartrees
 Guess from superposition of atomic densities
 Warning:  Energy on first SCF cycle will be non-variational
 SAD guess density has 136.000000 electrons

 -----------------------------------------------------------------------
  General SCF calculation program by
  Eric Jon Sundstrom, Paul Horn, Yuezhi Mao, Dmitri Zuev, Alec White,
  David Stuck, Shaama M.S., Shane Yost, Joonho Lee, David Small,
  Daniel Levine, Susi Lehtola, Hugh Burton, Evgeny Epifanovsky,
  Bang C. Huynh
 -----------------------------------------------------------------------
 Exchange:     0.2000 Hartree-Fock + 0.0800 Slater + 0.7200 B88
 Correlation:  0.1900 VWN1RPA + 0.8100 LYP
 Using SG-1 standard quadrature grid
 A restricted SCF calculation will be
 performed using DIIS
 SCF converges when DIIS error is below 1.0e-08
 ---------------------------------------
  Cycle       Energy         DIIS error
 ---------------------------------------
    1    -848.5909166868      3.74e-02  
    2    -843.4077261108      3.78e-03  
    3    -843.1815037422      5.54e-03  
    4    -843.6413267346      1.54e-03  
    5    -843.6778368541      3.66e-04  
    6    -843.6794339702      1.68e-04  
    7    -843.6798865070      3.44e-05  
    8    -843.6798999448      2.35e-05  
    9    -843.6799124760      2.72e-06  
   10    -843.6799126069      1.08e-06  
   11    -843.6799126258      4.37e-07  
   12    -843.6799126297      1.39e-07  
   13    -843.6799126301      5.68e-08  
   14    -843.6799126301      1.43e-08  
   15    -843.6799126301      5.24e-09  Convergence criterion met
 ---------------------------------------
 SCF time:   CPU 332.38s  wall 333.00s 
 SCF   energy in the final basis set =     -843.6799126301
 Total energy in the final basis set =     -843.6799126301
 
 Direct TDDFT/TDA calculation will be performed
 Exchange:     0.2000 Hartree-Fock + 0.0800 Slater + 0.7200 B88
 Correlation:  0.1900 VWN1RPA + 0.8100 LYP
 Using SG-1 standard quadrature grid
 Singlet excitation energies requested
 CIS energy converged when residual is below 10e- 6
 ---------------------------------------------------
 Iter    Rts Conv    Rts Left    Ttl Dev     Max Dev
 ---------------------------------------------------
   1         0          10      0.004771    0.000904
   2         0          10      0.001778    0.000558
   3         0          10      0.000423    0.000112
   4         0          10      0.000361    0.000246
   5         1           9      0.000096    0.000048
   6         5           5      0.000032    0.000015
   7         7           3      0.000016    0.000007
   8         8           2      0.000009    0.000004
   9         8           2      0.000004    0.000001
  10        10           0      0.000002    0.000000    Roots Converged
 ---------------------------------------------------
 
 ---------------------------------------------------
         TDDFT/TDA Excitation Energies              
 ---------------------------------------------------

 Excited state   1: excitation energy (eV) =    3.7182
 Total energy for state  1:                  -843.54327281 au
    Multiplicity: Singlet
    Trans. Mom.: -0.0202 X   0.0388 Y  -0.0012 Z
    Strength   :     0.0001748827
    D(   67) --> V(    1) amplitude = -0.6808
    D(   68) --> V(    2) amplitude =  0.7288

 Excited state   2: excitation energy (eV) =    3.7756
 Total energy for state  2:                  -843.54116127 au
    Multiplicity: Singlet
    Trans. Mom.: -1.9589 X   0.5473 Y  -0.0755 Z
    Strength   :     0.3831899094
    D(   67) --> V(    2) amplitude =  0.3622
    D(   68) --> V(    1) amplitude =  0.9048

 Excited state   3: excitation energy (eV) =    4.2979
 Total energy for state  3:                  -843.52196642 au
    Multiplicity: Singlet
    Trans. Mom.:  0.1910 X  -0.1013 Y   0.0080 Z
    Strength   :     0.0049300942
    D(   66) --> V(    1) amplitude = -0.3246
    D(   68) --> V(    3) amplitude =  0.9333

 Excited state   4: excitation energy (eV) =    4.5916
 Total energy for state  4:                  -843.51117491 au
    Multiplicity: Singlet
    Trans. Mom.:  0.0359 X   0.1901 Y  -0.0368 Z
    Strength   :     0.0043625548
    D(   68) --> V(    4) amplitude =  0.9722

 Excited state   5: excitation energy (eV) =    4.6081
 Total energy for state  5:                  -843.51056875 au
    Multiplicity: Singlet
    Trans. Mom.: -0.0502 X  -0.0276 Y  -0.0057 Z
    Strength   :     0.0003746872
    D(   66) --> V(    1) amplitude =  0.9272
    D(   68) --> V(    3) amplitude =  0.3132

 Excited state   6: excitation energy (eV) =    4.7570
 Total energy for state  6:                  -843.50509788 au
    Multiplicity: Singlet
    Trans. Mom.:  0.6965 X   1.5808 Y   0.0570 Z
    Strength   :     0.3481349572
    D(   65) --> V(    3) amplitude =  0.2474
    D(   66) --> V(    6) amplitude =  0.2271
    D(   67) --> V(    1) amplitude =  0.6561
    D(   68) --> V(    2) amplitude =  0.6061

 Excited state   7: excitation energy (eV) =    4.9167
 Total energy for state  7:                  -843.49922794 au
    Multiplicity: Singlet
    Trans. Mom.:  0.0432 X   0.2077 Y  -0.0072 Z
    Strength   :     0.0054290688
    D(   65) --> V(    1) amplitude = -0.6106
    D(   68) --> V(    6) amplitude =  0.7517

 Excited state   8: excitation energy (eV) =    4.9986
 Total energy for state  8:                  -843.49621684 au
    Multiplicity: Singlet
    Trans. Mom.: -0.0057 X   0.0954 Y   0.1062 Z
    Strength   :     0.0025007830
    D(   68) --> V(    5) amplitude =  0.9210
    D(   68) --> V(    7) amplitude = -0.3421

 Excited state   9: excitation energy (eV) =    5.1763
 Total energy for state  9:                  -843.48968557 au
    Multiplicity: Singlet
    Trans. Mom.: -0.1001 X  -0.1638 Y   0.0031 Z
    Strength   :     0.0046763418
    D(   66) --> V(    2) amplitude = -0.6156
    D(   67) --> V(    3) amplitude =  0.7330

 Excited state  10: excitation energy (eV) =    5.1837
 Total energy for state 10:                  -843.48941619 au
    Multiplicity: Singlet
    Trans. Mom.: -0.0287 X  -0.0935 Y  -0.0576 Z
    Strength   :     0.0016359199
    D(   68) --> V(    5) amplitude = -0.3267
    D(   68) --> V(    7) amplitude = -0.9009
 
 ---------------------------------------------------
 Calculating Relaxed Density
 ---------------------------------------------------
 Iter    Rts Conv    Rts Left    Ttl Dev     Max Dev
 ---------------------------------------------------
   1         0          10      0.001707    0.000446
   2         0          10      0.000515    0.000137
   3         0          10      0.000090    0.000021
   4         3           7      0.000015    0.000004
   5        10           0      0.000000    0.000000    Roots Converged
 ---------------------------------------------------
  SETman timing summary (seconds)
  CPU time              1186.21s
  System time              0.00s
  Wall time             1189.00s
 
 --------------------------------------------------------------
 
                    Orbital Energies (a.u.)
 --------------------------------------------------------------
 
 Alpha MOs
 -- Occupied --
-19.2183 -19.1627 -10.3411 -10.2212 -10.2210 -10.2144 -10.2124 -10.2117
-10.2115 -10.2109 -10.2104 -10.2065 -10.2057 -10.2043 -10.2042 -10.2036
-10.2035 -10.2033 -10.2033 -10.2027  -1.1246  -1.0347  -0.9033  -0.8653
 -0.8423  -0.8167  -0.7922  -0.7641  -0.7549  -0.7388  -0.7125  -0.6463
 -0.6395  -0.6358  -0.6236  -0.6071  -0.5568  -0.5324  -0.5266  -0.5225
 -0.5052  -0.5001  -0.4872  -0.4837  -0.4549  -0.4521  -0.4433  -0.4419
 -0.4387  -0.4223  -0.4160  -0.4103  -0.4078  -0.4061  -0.3974  -0.3782
 -0.3725  -0.3680  -0.3504  -0.3407  -0.3393  -0.3296  -0.3062  -0.2947
 -0.2819  -0.2660  -0.2421  -0.2084
 -- Virtual --
 -0.0717  -0.0396  -0.0215  -0.0180  -0.0057  -0.0015   0.0040   0.0096
  0.0166   0.0228   0.0322   0.0365   0.0393   0.0425   0.0461   0.0551
  0.0588   0.0620   0.0636   0.0676   0.0718   0.0773   0.0889   0.0893
  0.0937   0.0989   0.1027   0.1110   0.1119   0.1186   0.1262   0.1314
  0.1326   0.1374   0.1379   0.1435   0.1464   0.1531   0.1543   0.1628
  0.1679   0.1698   0.1736   0.1759   0.1784   0.1810   0.1842   0.1872
  0.1909   0.1932   0.1968   0.2031   0.2047   0.2093   0.2133   0.2182
  0.2231   0.2240   0.2287   0.2328   0.2359   0.2420   0.2440   0.2459
  0.2480   0.2519   0.2585   0.2606   0.2639   0.2658   0.2683   0.2708
  0.2757   0.2808   0.2826   0.2915   0.2923   0.2951   0.2971   0.2987
  0.3010   0.3055   0.3110   0.3137   0.3163   0.3204   0.3244   0.3314
  0.3397   0.3426   0.3472   0.3555   0.3607   0.3750   0.3822   0.3933
  0.4004   0.4055   0.4151   0.4223   0.4283   0.4369   0.4425   0.4543
  0.4690   0.4832   0.4948   0.5098   0.5307   0.5413   0.5669   0.5891
  0.6374   0.6460   0.6514   0.6649   0.6736   0.6779   0.6881   0.6967
  0.6995   0.7014   0.7114   0.7198   0.7227   0.7303   0.7341   0.7357
  0.7492   0.7505   0.7540   0.7564   0.7603   0.7679   0.7765   0.7816
  0.7831   0.7876   0.7911   0.7970   0.7974   0.8063   0.8077   0.8317
  0.8517   0.8566   0.8721   0.8866   0.8927   0.8947   0.9114   0.9174
  0.9267   0.9475   0.9504   0.9641   0.9677   0.9741   0.9954   1.0129
  1.0236   1.0476   1.0606   1.0660   1.0857   1.1070   1.1219   1.1329
  1.1555   1.1586   1.1649   1.1685   1.1716   1.1772   1.1878   1.1930
  1.2083   1.2114   1.2219   1.2244   1.2387   1.2458   1.2582   1.2704
  1.2766   1.2848   1.2958   1.3021   1.3136   1.3282   1.3306   1.3363
  1.3507   1.3721   1.3805   1.3865   1.4104   1.4216   1.4263   1.4588
  1.4618   1.4636   1.4640   1.4759   1.4791   1.4820   1.4866   1.5272
  1.5386   1.5517   1.5570   1.5689   1.6028   1.6329   1.6675   1.7094
  1.7326   1.7416   1.7602   1.7639   1.7704   1.7922   1.7988   1.8097
  1.8221   1.8363   1.8446   1.8496   1.8721   1.8800   1.8882   1.9078
  1.9191   1.9316   1.9341   1.9437   1.9445   1.9505   1.9631   1.9726
  1.9893   2.0007   2.0270   2.0399   2.0419   2.0671   2.0853   2.1128
  2.1382   2.1456   2.1599   2.1882   2.2050   2.2254   2.2289   2.2495
  2.2683   2.2717   2.2859   2.2981   2.3076   2.3246   2.3256   2.3640
  2.3691   2.3728   2.3805   2.4076   2.4138   2.4277   2.4495   2.4603
  2.5004   2.5100   2.5205   2.5634   2.5935   2.6358   2.6455   2.6538
  2.6689   2.6823   2.6986   2.7318   2.7420   2.7554   2.7682   2.7984
  2.8057   2.8346   2.8592   2.8696   2.8856   2.9053   2.9330   2.9570
  2.9850   3.0577   3.0735   3.0822   3.1037   3.1343   3.2267   3.3385
  3.4821   3.5376   4.2004   4.2106   4.2335   4.2443   4.2706   4.3155
  4.3388   4.3418   4.3468   4.3751   4.3852   4.4178   4.4334   4.4509
  4.4682   4.4911   4.5798   4.6210   4.7074   4.9214
 --------------------------------------------------------------
 
          Ground-State Mulliken Net Atomic Charges

     Atom                 Charge (a.u.)
  ----------------------------------------
      1 C                     0.732382
      2 C                    -0.182899
      3 C                    -0.319483
      4 C                    -0.097920
      5 C                     0.341224
      6 C                    -0.182209
      7 C                     0.269531
      8 C                    -0.245231
      9 C                    -0.476324
     10 C                    -0.249504
     11 C                     0.415652
     12 C                    -0.461237
     13 C                    -0.384276
     14 C                    -0.583136
     15 C                    -1.053596
     16 C                     1.259762
     17 C                    -0.518334
     18 C                    -0.002479
     19 O                    -0.523226
     20 O                    -0.387314
     21 H                     0.184387
     22 H                     0.184851
     23 H                     0.183407
     24 H                     0.182534
     25 H                     0.184526
     26 H                     0.180615
     27 H                     0.183822
     28 H                     0.188035
     29 H                     0.192558
     30 H                     0.258234
     31 H                     0.235833
     32 H                     0.489815
  ----------------------------------------
  Sum of atomic charges =     0.000000

 -----------------------------------------------------------------
                    Cartesian Multipole Moments
 -----------------------------------------------------------------
    Charge (ESU x 10^10)
                -0.0000
    Dipole Moment (Debye)
         X      -1.2728      Y       0.4210      Z      -1.2190
       Tot       1.8120
    Quadrupole Moments (Debye-Ang)
        XX    -108.7771     XY       0.7558     YY    -101.6685
        XZ      -8.6934     YZ       1.8722     ZZ    -124.1835
    Octopole Moments (Debye-Ang^2)
       XXX     -15.1318    XXY      -0.1903    XYY       7.1860
       YYY      -0.3079    XXZ     -66.9823    XYZ       7.1148
       YYZ       0.5620    XZZ      19.2462    YZZ       1.1254
       ZZZ      -3.1324
    Hexadecapole Moments (Debye-Ang^3)
      XXXX   -5677.9267   XXXY     -15.7884   XXYY   -1195.3148
      XYYY      -5.6736   YYYY   -1582.2153   XXXZ    -400.3769
      XXYZ      39.6996   XYYZ       3.6042   YYYZ       1.9884
      XXZZ   -1131.8160   XYZZ       1.5174   YYZZ    -365.9261
      XZZZ     -24.6029   YZZZ       3.0553   ZZZZ    -252.8215
 -----------------------------------------------------------------
 Calculating analytic gradient of the CIS energy
 CIS relaxed dipole moment
            1
    1  -0.5707865
    2  -0.1394764
    3  -0.4931970
	Magnitude:	 0.767 au	 1.950 Debye
 CIS 2 State Energy is -843.5411612656
 Gradient of the state energy (including CIS Excitation Energy)
            1           2           3           4           5           6
    1   0.0174051  -0.0279264   0.0119946  -0.0104691  -0.0100352   0.0222011
    2   0.0041821   0.0012270  -0.0026777   0.0060820   0.0131088  -0.0164289
    3   0.0011553  -0.0012678   0.0005039  -0.0002387  -0.0002810   0.0007659
            7           8           9          10          11          12
    1  -0.0191184   0.0110525   0.0034461   0.0141380   0.0106866  -0.0259858
    2  -0.0096513  -0.0039282  -0.0004483  -0.0010443  -0.0197610   0.0160460
    3  -0.0010329   0.0004860   0.0000456   0.0006436  -0.0000989  -0.0010997
           13          14          15          16          17          18
    1   0.0302853  -0.0132826  -0.0028903  -0.0159787   0.0026170   0.0003162
    2  -0.0020222   0.0070888   0.0037705   0.0008502   0.0055304   0.0003882
    3   0.0012503  -0.0006612  -0.0000868  -0.0004787   0.0011908   0.0003216
           19          20          21          22          23          24
    1   0.0000474  -0.0001364  -0.0001269   0.0000185   0.0000599  -0.0001708
    2   0.0000434   0.0001323  -0.0001299  -0.0000594   0.0000222   0.0001333
    3   0.0000384  -0.0002651  -0.0000313  -0.0000048   0.0000184  -0.0000317
           25          26          27          28          29          30
    1   0.0000208  -0.0001062   0.0003147  -0.0001859   0.0001930   0.0008195
    2  -0.0000435   0.0004944   0.0003239  -0.0000094  -0.0002298  -0.0016424
    3   0.0000003   0.0000571   0.0000290  -0.0000946   0.0000747  -0.0015490
           31          32
    1   0.0008640  -0.0000675
    2  -0.0012482  -0.0000989
    3   0.0006052   0.0000362
 Gradient time:  CPU 194.98 s  wall 196.20 s
Archival summary:
1\1\qnode0211\JobtypUnspecified\ProcedureUnspecified\6-31+G*\21812\ckw3571\MonJun2720:39:302022MonJun2720:39:302022\0\\#,JobtypUnspecified,ProcedureUnspecified,6-31+G*,\\0,1\C\C,1,1.42898\C,2,1.40144,1,118.673\H,3,1.08757,2,119.415,1,179.488,0\C,3,1.39319,2,120.884,1,-0.406835,0\H,5,1.08615,3,118.555,2,179.154,0\C,5,1.39825,3,121.654,2,-0.303074,0\C,7,1.41761,5,119.222,3,0.991125,0\C,1,1.42975,2,119.455,3,-179.466,0\C,9,1.42812,1,120.259,2,179.553,0\C,10,1.40604,9,119.396,1,-179.993,0\H,11,1.08772,10,119.173,9,179.99,0\C,11,1.39435,10,120.653,9,-0.00481731,0\H,13,1.087,11,119.83,10,-179.978,0\C,13,1.39582,11,120.418,10,0.0768922,0\H,15,1.08782,13,119.986,11,179.872,0\C,15,1.40515,13,120.9,11,-0.0501657,0\C,10,1.43494,9,118.298,1,-0.126806,0\H,18,1.08785,10,118.476,9,-179.636,0\C,18,1.3642,10,121.521,9,0.329747,0\H,20,1.08526,18,118.785,10,-179.656,0\C,2,1.43808,1,119.145,3,179.812,0\H,22,1.08777,2,118.306,1,179.923,0\C,22,1.36225,2,121.28,1,-0.115808,0\H,24,1.08773,22,120.43,2,-179.985,0\C,7,1.5264,5,121.239,3,179.693,0\H,26,1.0948,7,109.923,5,133.636,0\H,26,1.0966,7,110.122,5,-107.513,0\C,26,1.51381,7,114.123,5,12.5077,0\O,29,1.21284,26,125.742,7,-92.6913,0\O,29,1.35796,26,111.971,7,87.2613,0\H,31,0.97617,29,107.152,26,-179.107,0\\\@

 Total job time:  1720.18s(wall), 1714.02s(cpu) 
 Mon Jun 27 20:39:30 2022

        *************************************************************
        *                                                           *
        *  Thank you very much for using Q-Chem.  Have a nice day.  *
        *                                                           *
        *************************************************************


