
Running Job 1 of 1 pyrene_force.in
qchem pyrene_force.in_27521.0 /tmp/qchem27521/ 0
/software/QChem/5.3/exe/qcprog.exe_s pyrene_force.in_27521.0 /tmp/qchem27521/
                  Welcome to Q-Chem
     A Quantum Leap Into The Future Of Chemistry


 Q-Chem 5.3, Q-Chem, Inc., Pleasanton, CA (2020)

 License issued to: SRG Mark Ratner, Northwestern University

 Yihan Shao,  Zhengting Gan,  E. Epifanovsky,  A. T. B. Gilbert,  M. Wormit,  
 J. Kussmann,  A. W. Lange,  A. Behn,  Jia Deng,  Xintian Feng,  D. Ghosh,  
 M. Goldey,  P. R. Horn,  L. D. Jacobson,  I. Kaliman,  T. Kus,  A. Landau,  
 Jie Liu,  E. I. Proynov,  R. M. Richard,  R. P. Steele,  E. J. Sundstrom,  
 H. L. Woodcock III,  P. M. Zimmerman,  D. Zuev,  B. Alam,  B. Albrecht,  
 A. Aldossary,  E. Alguire,  S. A. Baeppler,  D. Barton,  Z. Benda,  
 Y. A. Bernard,  E. J. Berquist,  K. B. Bravaya,  H. Burton,  K. Carter-Fenk,  
 D. Casanova,  Chun-Min Chang,  Yunqing Chen,  A. Chien,  K. D. Closser,  
 M. P. Coons,  S. Coriani,  S. Dasgupta,  A. L. Dempwolff,  M. Diedenhofen,  
 Hainam Do,  R. G. Edgar,  Po-Tung Fang,  S. Faraji,  S. Fatehi,  
 Qingguo Feng,  J. Fosso-Tande,  J. Gayvert,  Qinghui Ge,  A. Ghysels,  
 G. Gidofalvi,  J. Gomes,  J. Gonthier,  S. Gulania,  A. Gunina,  D. Hait,  
 M. W. D. Hanson-Heine,  S. Hammes-Schiffer,  P. H. P. Harbach,  
 A. W. Hauser,  M. F. Herbst,  J. E. Herr,  E. G. Hohenstein,  Z. C. Holden,  
 S. Houck,  Kerwin Hui,  B. C. Huynh,  M. Ivanov,  T.-C. Jagau,  Hyunjun Ji,  
 B. Kaduk,  K. Khistyaev,  Jaehoon Kim,  P. Klunzinger,  K. Koh,  
 D. Kosenkov,  L. Koulias,  T. Kowalczyk,  C. M. Krauter,  A. Kunitsa,  
 Ka Un Lao,  A. Laurent,  K. V. Lawler,  Joonho Lee,  D. Lefrancois,  
 S. Lehtola,  D. S. Levine,  Yi-Pei Li,  You-Sheng Lin,  Fenglai Liu,  
 Kuan-Yu Liu,  E. Livshits,  M. Loipersberger,  A. Luenser,  P. Manohar,  
 E. Mansoor,  S. F. Manzer,  Shan-Ping Mao,  Yuezhi Mao,  N. Mardirossian,  
 A. V. Marenich,  T. Markovich,  L. A. Martinez-Martinez,  S. A. Maurer,  
 N. J. Mayhall,  S. C. McKenzie,  J.-M. Mewes,  P. Morgante,  A. F. Morrison,  
 J. W. Mullinax,  K. Nanda,  T. S. Nguyen-Beck,  R. Olivares-Amaya,  
 K. J. Oosterbaan,  J. A. Parkhill,  S. K. Paul,  F. Pavosevic,  Zheng Pei,  
 T. M. Perrine,  F. Plasser,  P. Pokhilko,  S. Prager,  A. Prociuk,  
 E. Ramos,  B. Rana,  D. R. Rehn,  F. Rob,  E. Rossomme,  M. Scheurer,  
 M. Schneider,  N. Sergueev,  S. M. Sharada,  S. Sharma,  W. Skomorowski,  
 D. W. Small,  T. Stauch,  C. J. Stein,  T. Stein,  Yu-Chuan Su,  
 S. P. Veccham,  Zhen Tao,  A. J. W. Thom,  A. Tkatchenko,  T. Tsuchimochi,  
 N. M. Tubman,  L. Vogt,  M. L. Vidal,  O. Vydrov,  M. A. Watson,  J. Wenzel,  
 M. de Wergifosse,  T. A. Wesolowski,  A. White,  J. Witte,  A. Yamada,  
 Jun Yang,  K. Yao,  S. Yeganeh,  S. R. Yost,  Zhi-Qiang You,  A. Zech,  
 Igor Ying Zhang,  Xing Zhang,  Yan Zhao,  Ying Zhu,  B. R. Brooks,  
 G. K. L. Chan,  C. J. Cramer,  M. S. Gordon,  W. J. Hehre,  A. Klamt,  
 M. W. Schmidt,  C. D. Sherrill,  D. G. Truhlar,  A. Aspuru-Guzik,  R. Baer,  
 A. T. Bell,  N. A. Besley,  Jeng-Da Chai,  A. E. DePrince, III,  
 R. A. DiStasio Jr.,  A. Dreuw,  B. D. Dunietz,  T. R. Furlani,  
 Chao-Ping Hsu,  Yousung Jung,  Jing Kong,  D. S. Lambrecht,  WanZhen Liang,  
 C. Ochsenfeld,  V. A. Rassolov,  L. V. Slipchenko,  J. E. Subotnik,  
 T. Van Voorhis,  J. M. Herbert,  A. I. Krylov,  P. M. W. Gill,  M. Head-Gordon

 Contributors to earlier versions of Q-Chem not listed above: 
 R. D. Adamson,  B. Austin,  J. Baker,  G. J. O. Beran,  K. Brandhorst,  
 S. T. Brown,  E. F. C. Byrd,  A. K. Chakraborty,  C.-L. Cheng,  
 Siu Hung Chien,  D. M. Chipman,  D. L. Crittenden,  H. Dachsel,  
 R. J. Doerksen,  A. D. Dutoi,  L. Fusti-Molnar,  W. A. Goddard III,  
 A. Golubeva-Zadorozhnaya,  S. R. Gwaltney,  G. Hawkins,  A. Heyden,  
 S. Hirata,  G. Kedziora,  F. J. Keil,  C. Kelley,  Jihan Kim,  R. A. King,  
 R. Z. Khaliullin,  P. P. Korambath,  W. Kurlancheek,  A. M. Lee,  M. S. Lee,  
 S. V. Levchenko,  Ching Yeh Lin,  D. Liotard,  R. C. Lochan,  I. Lotan,  
 P. E. Maslen,  N. Nair,  D. P. O'Neill,  D. Neuhauser,  E. Neuscamman,  
 C. M. Oana,  R. Olson,  B. Peters,  R. Peverati,  P. A. Pieniazek,  
 Y. M. Rhee,  J. Ritchie,  M. A. Rohrdanz,  E. Rosta,  N. J. Russ,  
 H. F. Schaefer III,  N. E. Schultz,  N. Shenvi,  A. C. Simmonett,  A. Sodt,  
 D. Stuck,  K. S. Thanthiriwatte,  V. Vanovschi,  Tao Wang,  A. Warshel,  
 C. F. Williams,  Q. Wu,  X. Xu,  W. Zhang

 Please cite Q-Chem as follows:
 Y. Shao et al., Mol. Phys. 113, 184-215 (2015)
 DOI: 10.1080/00268976.2014.952696

 Q-Chem 5.3.1 for Intel X86 EM64T Linux

 Parts of Q-Chem use Armadillo 9.800.1 (Horizon Scraper).
 http://arma.sourceforge.net/

 Q-Chem begins on Wed Nov 10 08:43:02 2021  

Host: 
0

     Scratch files written to /tmp/qchem27521//
 Aug2920 |scratch|qcdevops|jenkins|workspace|build_RNUM 4082   
Processing $rem in /software/QChem/5.3/config/preferences:
Processing $rem in /home/ckw3571/.qchemrc:

Checking the input file for inconsistencies... 	...done.

--------------------------------------------------------------
User input:
--------------------------------------------------------------
$molecule
0 1
C    0.3106360   23.5093081   10.8550679
C   -2.1504200   23.4700371   10.8549345
C   -0.9218899   22.7595710   10.8550100
C   -0.9438555   21.3616992   10.8551621
H   -0.0034608   20.8154609   10.8550349
C   -2.1504200   20.6716729   10.8552647
H   -2.1504200   19.5849015   10.8555696
C   -4.6114760   24.8609766   10.8550680
C   -2.1504200   24.9002475   10.8549346
C   -3.3789501   25.6107136   10.8550101
C   -3.3569846   27.0085854   10.8551621
H   -4.2973792   27.5548238   10.8550347
C   -2.1504200   27.6986117   10.8552647
H   -2.1504200   28.7853832   10.8555694
C   -4.6114760   23.5093081   10.8550679
C   -3.3789501   22.7595710   10.8550099
C   -3.3569846   21.3616992   10.8551618
H   -4.2973792   20.8154608   10.8550345
C    0.3106360   24.8609765   10.8550679
C   -0.9218899   25.6107136   10.8550101
C   -0.9438555   27.0085854   10.8551620
H   -0.0034608   27.5548238   10.8550346
H    1.2480363   22.9584360   10.8551559
H   -5.5488763   25.4118486   10.8551561
H   -5.5488763   22.9584360   10.8551559
H    1.2480363   25.4118486   10.8551559
$end

$rem
BASIS  =  6-31+G*
CIS_N_ROOTS  =  11
CIS_STATE_DERIVATIVE  =  2
CIS_TRIPLETS  =  0
EXCHANGE  =  B3LYP
JOB_TYPE  =  Force
$end
--------------------------------------------------------------
 Atom   8: (  0.6758343067,  2.4610559848, -0.0000268255)
         ->(  0.6758342218,  2.4610560074, -0.0000269217)
 Atom  15: ( -0.6758341933,  2.4610559926, -0.0000269099)
         ->( -0.6758342218,  2.4610560074, -0.0000269217)
 Atom  19: (  0.6758341782, -2.4610560152, -0.0000269373)
         ->(  0.6758342218, -2.4610560074, -0.0000269217)
 Atom   9: (  0.7151051925, -0.0000000155, -0.0001602319)
         ->(  0.7151052075,  0.0000000072, -0.0001603153)
 Atom   2: ( -0.7151052075, -0.0000000072, -0.0001603153)
         ->( -0.7151052075,  0.0000000000, -0.0001603153)
 Atom  10: (  1.4255712996,  1.2285300804, -0.0000847371)
         ->(  1.4255713147,  1.2285301031, -0.0000848100)
 Atom  16: ( -1.4255713004,  1.2285300969, -0.0000849041)
         ->( -1.4255713147,  1.2285301031, -0.0000848100)
 Atom  20: (  1.4255712853, -1.2285301196, -0.0000847430)
         ->(  1.4255713147, -1.2285301031, -0.0000848100)
 Atom  11: (  2.8234430994,  1.2065645723,  0.0000672466)
         ->(  2.8234431145,  1.2065644950,  0.0000673062)
 Atom  17: ( -2.8234431006,  1.2065646050,  0.0000670120)
         ->( -2.8234431145,  1.2065644950,  0.0000673062)
 Atom  21: (  2.8234430855, -1.2065645277,  0.0000671408)
         ->(  2.8234431145, -1.2065644950,  0.0000673062)
 Atom  12: (  3.3696815049,  2.1469591692, -0.0000601575)
         ->(  3.3696814200,  2.1469591918, -0.0000598897)
 Atom  18: ( -3.3696814951,  2.1469592082, -0.0000602794)
         ->( -3.3696814200,  2.1469591918, -0.0000598897)
 Atom  22: (  3.3696814800, -2.1469592308, -0.0000602677)
         ->(  3.3696814200, -2.1469591918, -0.0000598897)
 Atom  13: (  3.5134693925, -0.0000000317,  0.0001698357)
         ->(  3.5134694075, -0.0000000090,  0.0001699171)
 Atom   6: ( -3.5134694075,  0.0000000090,  0.0001699171)
         ->( -3.5134694075,  0.0000000000,  0.0001699171)
 Atom  14: (  4.6002408925, -0.0000000380,  0.0004745232)
         ->(  4.6002408075, -0.0000000153,  0.0004748297)
 Atom   7: ( -4.6002408075,  0.0000000153,  0.0004748297)
         ->( -4.6002408075,  0.0000000000,  0.0004748297)
 Atom  24: (  1.2267063121,  3.3984562816,  0.0000612703)
         ->(  1.2267063272,  3.3984563042,  0.0000610825)
 Atom  25: ( -1.2267062879,  3.3984562958,  0.0000610987)
         ->( -1.2267063272,  3.3984563042,  0.0000610825)
 Atom  26: (  1.2267062728, -3.3984563184,  0.0000610541)
         ->(  1.2267063272, -3.3984563042,  0.0000610825)
 ----------------------------------------------------------------
             Standard Nuclear Orientation (Angstroms)
    I     Atom           X                Y                Z
 ----------------------------------------------------------------
    1      C      -0.6758342218    -2.4610560074    -0.0000269217
    2      C      -0.7151052075     0.0000000000    -0.0001603153
    3      C      -1.4255713147    -1.2285301031    -0.0000848100
    4      C      -2.8234431145    -1.2065644950     0.0000673062
    5      H      -3.3696814200    -2.1469591918    -0.0000598897
    6      C      -3.5134694075     0.0000000000     0.0001699171
    7      H      -4.6002408075     0.0000000000     0.0004748297
    8      C       0.6758342218     2.4610560074    -0.0000269217
    9      C       0.7151052075     0.0000000072    -0.0001603153
   10      C       1.4255713147     1.2285301031    -0.0000848100
   11      C       2.8234431145     1.2065644950     0.0000673062
   12      H       3.3696814200     2.1469591918    -0.0000598897
   13      C       3.5134694075    -0.0000000090     0.0001699171
   14      H       4.6002408075    -0.0000000153     0.0004748297
   15      C      -0.6758342218     2.4610560074    -0.0000269217
   16      C      -1.4255713147     1.2285301031    -0.0000848100
   17      C      -2.8234431145     1.2065644950     0.0000673062
   18      H      -3.3696814200     2.1469591918    -0.0000598897
   19      C       0.6758342218    -2.4610560074    -0.0000269217
   20      C       1.4255713147    -1.2285301031    -0.0000848100
   21      C       2.8234431145    -1.2065644950     0.0000673062
   22      H       3.3696814200    -2.1469591918    -0.0000598897
   23      H      -1.2267063272    -3.3984563042     0.0000610825
   24      H       1.2267063272     3.3984563042     0.0000610825
   25      H      -1.2267063272     3.3984563042     0.0000610825
   26      H       1.2267063272    -3.3984563042     0.0000610825
 ----------------------------------------------------------------
 Molecular Point Group                 C2v   NOp =  4
 Largest Abelian Subgroup              C2v   NOp =  4
 Nuclear Repulsion Energy =         967.95489188 hartrees
 There are       53 alpha and       53 beta electrons
 Requested basis set is 6-31+G(d)
 There are 100 shells and 324 basis functions

 Total QAlloc Memory Limit   8000 MB
 Mega-Array Size       188 MB
 MEM_STATIC part       192 MB
 A cutoff of  1.0D-11 yielded   4245 shell pairs
 There are     47609 function pairs
 Smallest overlap matrix eigenvalue = 1.11E-08

 Q-Chem warning in module stvman/mkSTV.C, line 318:

 Overlap eigenvalue is smaller than square root of threshold
 Use THRESH >= 12 to get rid of this warning

 Linear dependence detected in AO basis
 Tighter screening thresholds may be required for diffuse basis sets
 Use S2THRESH > 14 and THRESH = 14 in case of SCF convergence issues
 Number of orthogonalized atomic orbitals = 317
 Maximum deviation from orthogonality = 2.733E-10

 Scale SEOQF with 1.000000e-01/1.000000e-01/1.000000e-01

 Standard Electronic Orientation quadrupole field applied
 Nucleus-field energy     =     0.0000000379 hartrees
 Guess from superposition of atomic densities
 Warning:  Energy on first SCF cycle will be non-variational
 SAD guess density has 106.000000 electrons

 -----------------------------------------------------------------------
  General SCF calculation program by
  Eric Jon Sundstrom, Paul Horn, Yuezhi Mao, Dmitri Zuev, Alec White,
  David Stuck, Shaama M.S., Shane Yost, Joonho Lee, David Small,
  Daniel Levine, Susi Lehtola, Hugh Burton, Evgeny Epifanovsky,
  Bang C. Huynh
 -----------------------------------------------------------------------
 Exchange:     0.2000 Hartree-Fock + 0.0800 Slater + 0.7200 B88
 Correlation:  0.1900 VWN1RPA + 0.8100 LYP
 Using SG-1 standard quadrature grid
 A restricted SCF calculation will be
 performed using DIIS
 SCF converges when DIIS error is below 1.0e-08
 ---------------------------------------
  Cycle       Energy         DIIS error
 ---------------------------------------
    1    -620.0073089560      4.21e-02  
    2    -615.6133735321      3.44e-03  
    3    -615.6326097013      3.27e-03  
    4    -615.7867891636      3.03e-04  
    5    -615.7874810352      1.95e-04  
    6    -615.7879574305      5.13e-05  
    7    -615.7879854186      2.10e-05  
    8    -615.7879908096      3.95e-06  
    9    -615.7879916119      1.59e-06  
   10    -615.7879915983      1.36e-07  
   11    -615.7879916686      3.50e-08  
   12    -615.7879916531      1.76e-08  
   13    -615.7879916190      4.81e-09  Convergence criterion met
 ---------------------------------------
 SCF time:   CPU 65.47s  wall 66.00s 
 SCF   energy in the final basis set =     -615.7879916190
 Total energy in the final basis set =     -615.7879916190
 
 Direct TDDFT/TDA calculation will be performed
 Exchange:     0.2000 Hartree-Fock + 0.0800 Slater + 0.7200 B88
 Correlation:  0.1900 VWN1RPA + 0.8100 LYP
 Using SG-1 standard quadrature grid
 Singlet excitation energies requested
 CIS energy converged when residual is below 10e- 6
 ---------------------------------------------------
 Iter    Rts Conv    Rts Left    Ttl Dev     Max Dev
 ---------------------------------------------------
   1         0          11      0.005528    0.001144
   2         0          11      0.002223    0.001049
   3         0          11      0.000792    0.000383
   4         2           9      0.000179    0.000085
   5         5           6      0.000053    0.000030
   6         9           2      0.000012    0.000005
   7        11           0      0.000005    0.000001    Roots Converged
 ---------------------------------------------------
 
 ---------------------------------------------------
         TDDFT/TDA Excitation Energies              
 ---------------------------------------------------

 Excited state   1: excitation energy (eV) =    3.8243
 Total energy for state  1:                  -615.64745200 au
    Multiplicity: Singlet
    Trans. Mom.: -0.0000 X   0.0573 Y  -0.0000 Z
    Strength   :     0.0003077495
    D(   52) --> V(    1) amplitude = -0.6761
    D(   53) --> V(    2) amplitude =  0.7339

 Excited state   2: excitation energy (eV) =    3.9337
 Total energy for state  2:                  -615.64342952 au
    Multiplicity: Singlet
    Trans. Mom.: -1.8013 X   0.0000 Y   0.0000 Z
    Strength   :     0.3127025911
    D(   52) --> V(    2) amplitude =  0.3910
    D(   53) --> V(    1) amplitude =  0.8982

 Excited state   3: excitation energy (eV) =    4.3829
 Total energy for state  3:                  -615.62692199 au
    Multiplicity: Singlet
    Trans. Mom.:  0.0000 X  -0.0000 Y  -0.0000 Z
    Strength   :     0.0000000000
    D(   51) --> V(    1) amplitude = -0.2839
    D(   53) --> V(    3) amplitude =  0.9548

 Excited state   4: excitation energy (eV) =    4.7540
 Total energy for state  4:                  -615.61328657 au
    Multiplicity: Singlet
    Trans. Mom.: -0.0000 X   0.0000 Y  -0.0000 Z
    Strength   :     0.0000000000
    D(   51) --> V(    1) amplitude =  0.9479
    D(   53) --> V(    3) amplitude =  0.2767

 Excited state   5: excitation energy (eV) =    4.8673
 Total energy for state  5:                  -615.60912006 au
    Multiplicity: Singlet
    Trans. Mom.:  0.0000 X   1.6688 Y  -0.0000 Z
    Strength   :     0.3320797907
    D(   50) --> V(    3) amplitude = -0.2602
    D(   51) --> V(    4) amplitude =  0.2440
    D(   52) --> V(    1) amplitude =  0.6726
    D(   53) --> V(    2) amplitude =  0.6162

 Excited state   6: excitation energy (eV) =    5.0005
 Total energy for state  6:                  -615.60422774 au
    Multiplicity: Singlet
    Trans. Mom.:  0.0000 X   0.0000 Y   0.0000 Z
    Strength   :     0.0000000003
    D(   50) --> V(    1) amplitude =  0.5421
    D(   53) --> V(    4) amplitude =  0.8215

 Excited state   7: excitation energy (eV) =    5.0733
 Total energy for state  7:                  -615.60155022 au
    Multiplicity: Singlet
    Trans. Mom.:  0.0000 X   0.0003 Y   0.0000 Z
    Strength   :     0.0000000118
    D(   53) --> V(    5) amplitude =  0.9934

 Excited state   8: excitation energy (eV) =    5.2184
 Total energy for state  8:                  -615.59621789 au
    Multiplicity: Singlet
    Trans. Mom.:  0.0000 X  -0.0000 Y  -0.0000 Z
    Strength   :     0.0000000001
    D(   51) --> V(    2) amplitude = -0.6141
    D(   52) --> V(    3) amplitude =  0.7696

 Excited state   9: excitation energy (eV) =    5.3406
 Total energy for state  9:                  -615.59172728 au
    Multiplicity: Singlet
    Trans. Mom.: -0.0000 X  -0.0000 Y   0.0000 Z
    Strength   :     0.0000000000
    D(   53) --> V(    6) amplitude =  0.9942

 Excited state  10: excitation energy (eV) =    5.3658
 Total energy for state 10:                  -615.59080081 au
    Multiplicity: Singlet
    Trans. Mom.:  0.0000 X   0.0000 Y  -0.0317 Z
    Strength   :     0.0001318330
    D(   53) --> V(    7) amplitude =  0.9926

 Excited state  11: excitation energy (eV) =    5.6574
 Total energy for state 11:                  -615.58008555 au
    Multiplicity: Singlet
    Trans. Mom.:  2.7079 X   0.0000 Y  -0.0000 Z
    Strength   :     1.0163241749
    D(   51) --> V(    3) amplitude =  0.3978
    D(   52) --> V(    2) amplitude =  0.8343
    D(   53) --> V(    1) amplitude = -0.2827
 
 ---------------------------------------------------
 Calculating Relaxed Density
 ---------------------------------------------------
 Iter    Rts Conv    Rts Left    Ttl Dev     Max Dev
 ---------------------------------------------------
   1         0          11      0.000903    0.000173
   2         0          11      0.000089    0.000016
   3        11           0      0.000000    0.000000    Roots Converged
 ---------------------------------------------------
  SETman timing summary (seconds)
  CPU time               538.89s
  System time              0.00s
  Wall time              540.17s
 
 --------------------------------------------------------------
             Orbital Energies (a.u.) and Symmetries
 --------------------------------------------------------------
 
 Alpha MOs, Restricted
 -- Occupied --                  
-10.206 -10.206 -10.206 -10.206 -10.205 -10.204 -10.200 -10.200
  1 A1    1 B1    1 A2    1 B2    2 A1    2 B1    3 A1    2 B2                 
-10.199 -10.199 -10.199 -10.199 -10.198 -10.198 -10.198 -10.198
  2 A2    3 B1    4 B1    4 A1    3 A2    3 B2    5 A1    5 B1                 
 -0.901  -0.860  -0.838  -0.804  -0.773  -0.756  -0.737  -0.718
  6 A1    6 B1    4 B2    7 A1    4 A2    8 A1    7 B1    5 B2                 
 -0.635  -0.633  -0.630  -0.616  -0.551  -0.532  -0.524  -0.509
  9 A1    5 A2    8 B1    6 B2    9 B1   10 A1    6 A2    7 B2                 
 -0.497  -0.478  -0.448  -0.441  -0.440  -0.423  -0.419  -0.406
 11 A1   10 B1   12 A1    8 B2    7 A2   13 A1   14 A1   11 B1                 
 -0.406  -0.397  -0.373  -0.371  -0.370  -0.349  -0.336  -0.326
  9 B2    8 A2   12 B1   10 B2   13 B1   11 B2   15 A1    9 A2                 
 -0.305  -0.281  -0.263  -0.238  -0.207
 16 A1   10 A2   17 A1   14 B1   12 B2                                         
 -- Virtual --                   
 -0.063  -0.034  -0.017   0.001   0.003   0.012   0.014   0.026
 11 A2   18 A1   15 B1   13 B2   19 A1   16 B1   14 B2   20 A1                 
  0.029   0.045   0.045   0.046   0.047   0.048   0.062   0.066
 12 A2   21 A1   17 B1   15 B2   18 B1   22 A1   13 A2   19 B1                 
  0.072   0.076   0.077   0.083   0.097   0.097   0.108   0.108
 23 A1   14 A2   16 B2   20 B1   17 B2   24 A1   18 B2   21 B1                 
  0.109   0.127   0.127   0.137   0.141   0.141   0.144   0.149
 25 A1   22 B1   26 A1   15 A2   27 A1   19 B2   16 A2   28 A1                 
  0.154   0.162   0.163   0.173   0.181   0.181   0.183   0.184
 17 A2   29 A1   23 B1   24 B1   20 B2   25 B1   30 A1   18 A2                 
  0.186   0.188   0.191   0.194   0.209   0.209   0.210   0.223
 21 B2   31 A1   22 B2   32 A1   26 B1   19 A2   23 B2   27 B1                 
  0.225   0.229   0.235   0.236   0.241   0.247   0.249   0.251
 20 A2   24 B2   21 A2   33 A1   28 B1   29 B1   30 B1   25 B2                 
  0.253   0.254   0.261   0.264   0.264   0.277   0.281   0.284
 34 A1   35 A1   22 A2   31 B1   26 B2   23 A2   36 A1   32 B1                 
  0.293   0.298   0.300   0.301   0.303   0.308   0.308   0.320
 37 A1   27 B2   38 A1   33 B1   24 A2   28 B2   34 B1   39 A1                 
  0.321   0.326   0.333   0.335   0.340   0.344   0.366   0.384
 25 A2   29 B2   35 B1   40 A1   26 A2   36 B1   37 B1   41 A1                 
  0.400   0.422   0.435   0.438   0.449   0.466   0.476   0.501
 30 B2   27 A2   42 A1   31 B2   38 B1   28 A2   39 B1   29 A2                 
  0.536   0.556   0.568   0.602   0.653   0.660   0.661   0.669
 30 A2   40 B1   32 B2   43 A1   44 A1   33 B2   31 A2   45 A1                 
  0.679   0.689   0.692   0.692   0.722   0.724   0.726   0.730
 41 B1   42 B1   34 B2   46 A1   32 A2   47 A1   43 B1   35 B2                 
  0.732   0.739   0.741   0.747   0.753   0.754   0.759   0.773
 36 B2   44 B1   37 B2   33 A2   45 B1   48 A1   49 A1   50 A1                 
  0.779   0.780   0.783   0.797   0.798   0.802   0.802   0.807
 51 A1   34 A2   38 B2   35 A2   39 B2   52 A1   46 B1   47 B1                 
  0.840   0.858   0.869   0.886   0.899   0.902   0.918   0.929
 48 B1   36 A2   53 A1   37 A2   49 B1   54 A1   50 B1   40 B2                 
  0.952   0.957   0.964   0.969   0.976   1.000   1.020   1.030
 51 B1   38 A2   55 A1   41 B2   52 B1   56 A1   39 A2   42 B2                 
  1.055   1.064   1.099   1.111   1.131   1.167   1.176   1.178
 53 B1   40 A2   57 A1   54 B1   58 A1   43 B2   59 A1   44 B2                 
  1.184   1.185   1.208   1.211   1.216   1.217   1.220   1.254
 55 B1   41 A2   56 B1   45 B2   46 B2   60 A1   61 A1   42 A2                 
  1.271   1.283   1.294   1.298   1.312   1.324   1.352   1.379
 43 A2   47 B2   57 B1   44 A2   48 B2   62 A1   58 B1   63 A1                 
  1.388   1.390   1.423   1.461   1.463   1.468   1.470   1.477
 45 A2   59 B1   46 A2   64 A1   49 B2   65 A1   60 B1   50 B2                 
  1.486   1.490   1.490   1.491   1.539   1.554   1.571   1.585
 66 A1   47 A2   48 A2   51 B2   67 A1   61 B1   62 B1   52 B2                 
  1.645   1.734   1.768   1.775   1.792   1.826   1.853   1.862
 49 A2   68 A1   69 A1   63 B1   53 B2   70 A1   54 B2   50 A2                 
  1.879   1.880   1.920   1.932   1.944   1.949   1.949   1.969
 64 B1   55 B2   65 B1   71 A1   51 A2   72 A1   66 B1   56 B2                 
  1.973   1.973   1.983   2.003   2.045   2.051   2.052   2.079
 52 A2   73 A1   67 B1   53 A2   68 B1   57 B2   74 A1   69 B1                 
  2.129   2.147   2.161   2.161   2.217   2.231   2.234   2.244
 54 A2   75 A1   76 A1   58 B2   70 B1   71 B1   59 B2   55 A2                 
  2.274   2.277   2.297   2.297   2.332   2.349   2.372   2.377
 60 B2   72 B1   77 A1   78 A1   56 A2   61 B2   62 B2   79 A1                 
  2.383   2.387   2.393   2.447   2.488   2.500   2.506   2.611
 57 A2   73 B1   80 A1   74 B1   75 B1   58 A2   59 A2   63 B2                 
  2.639   2.657   2.669   2.679   2.704   2.720   2.732   2.753
 81 A1   60 A2   76 B1   64 B2   61 A2   77 B1   65 B2   82 A1                 
  2.764   2.803   2.832   2.849   2.876   2.882   2.931   2.947
 62 A2   78 B1   66 B2   79 B1   83 A1   63 A2   80 B1   84 A1                 
  2.952   3.063   3.073   3.083   3.238   3.358   3.496   3.566
 64 A2   65 A2   67 B2   81 B1   82 B1   85 A1   66 A2   83 B1                 
  4.224   4.246   4.251   4.271   4.326   4.346   4.351   4.356
 86 A1   84 B1   68 B2   87 A1   67 A2   88 A1   85 B1   69 B2                 
  4.417   4.418   4.420   4.464   4.487   4.595   4.679   4.929
 86 B1   89 A1   68 A2   70 B2   87 B1   69 A2   90 A1   88 B1                 
 
 Beta MOs, Restricted
 -- Occupied --                  
-10.206 -10.206 -10.206 -10.206 -10.205 -10.204 -10.200 -10.200
  1 A1    1 B1    1 A2    1 B2    2 A1    2 B1    3 A1    2 B2                 
-10.199 -10.199 -10.199 -10.199 -10.198 -10.198 -10.198 -10.198
  2 A2    3 B1    4 B1    4 A1    3 A2    3 B2    5 A1    5 B1                 
 -0.901  -0.860  -0.838  -0.804  -0.773  -0.756  -0.737  -0.718
  6 A1    6 B1    4 B2    7 A1    4 A2    8 A1    7 B1    5 B2                 
 -0.635  -0.633  -0.630  -0.616  -0.551  -0.532  -0.524  -0.509
  9 A1    5 A2    8 B1    6 B2    9 B1   10 A1    6 A2    7 B2                 
 -0.497  -0.478  -0.448  -0.441  -0.440  -0.423  -0.419  -0.406
 11 A1   10 B1   12 A1    8 B2    7 A2   13 A1   14 A1   11 B1                 
 -0.406  -0.397  -0.373  -0.371  -0.370  -0.349  -0.336  -0.326
  9 B2    8 A2   12 B1   10 B2   13 B1   11 B2   15 A1    9 A2                 
 -0.305  -0.281  -0.263  -0.238  -0.207
 16 A1   10 A2   17 A1   14 B1   12 B2                                         
 -- Virtual --                   
 -0.063  -0.034  -0.017   0.001   0.003   0.012   0.014   0.026
 11 A2   18 A1   15 B1   13 B2   19 A1   16 B1   14 B2   20 A1                 
  0.029   0.045   0.045   0.046   0.047   0.048   0.062   0.066
 12 A2   21 A1   17 B1   15 B2   18 B1   22 A1   13 A2   19 B1                 
  0.072   0.076   0.077   0.083   0.097   0.097   0.108   0.108
 23 A1   14 A2   16 B2   20 B1   17 B2   24 A1   18 B2   21 B1                 
  0.109   0.127   0.127   0.137   0.141   0.141   0.144   0.149
 25 A1   22 B1   26 A1   15 A2   27 A1   19 B2   16 A2   28 A1                 
  0.154   0.162   0.163   0.173   0.181   0.181   0.183   0.184
 17 A2   29 A1   23 B1   24 B1   20 B2   25 B1   30 A1   18 A2                 
  0.186   0.188   0.191   0.194   0.209   0.209   0.210   0.223
 21 B2   31 A1   22 B2   32 A1   26 B1   19 A2   23 B2   27 B1                 
  0.225   0.229   0.235   0.236   0.241   0.247   0.249   0.251
 20 A2   24 B2   21 A2   33 A1   28 B1   29 B1   30 B1   25 B2                 
  0.253   0.254   0.261   0.264   0.264   0.277   0.281   0.284
 34 A1   35 A1   22 A2   31 B1   26 B2   23 A2   36 A1   32 B1                 
  0.293   0.298   0.300   0.301   0.303   0.308   0.308   0.320
 37 A1   27 B2   38 A1   33 B1   24 A2   28 B2   34 B1   39 A1                 
  0.321   0.326   0.333   0.335   0.340   0.344   0.366   0.384
 25 A2   29 B2   35 B1   40 A1   26 A2   36 B1   37 B1   41 A1                 
  0.400   0.422   0.435   0.438   0.449   0.466   0.476   0.501
 30 B2   27 A2   42 A1   31 B2   38 B1   28 A2   39 B1   29 A2                 
  0.536   0.556   0.568   0.602   0.653   0.660   0.661   0.669
 30 A2   40 B1   32 B2   43 A1   44 A1   33 B2   31 A2   45 A1                 
  0.679   0.689   0.692   0.692   0.722   0.724   0.726   0.730
 41 B1   42 B1   34 B2   46 A1   32 A2   47 A1   43 B1   35 B2                 
  0.732   0.739   0.741   0.747   0.753   0.754   0.759   0.773
 36 B2   44 B1   37 B2   33 A2   45 B1   48 A1   49 A1   50 A1                 
  0.779   0.780   0.783   0.797   0.798   0.802   0.802   0.807
 51 A1   34 A2   38 B2   35 A2   39 B2   52 A1   46 B1   47 B1                 
  0.840   0.858   0.869   0.886   0.899   0.902   0.918   0.929
 48 B1   36 A2   53 A1   37 A2   49 B1   54 A1   50 B1   40 B2                 
  0.952   0.957   0.964   0.969   0.976   1.000   1.020   1.030
 51 B1   38 A2   55 A1   41 B2   52 B1   56 A1   39 A2   42 B2                 
  1.055   1.064   1.099   1.111   1.131   1.167   1.176   1.178
 53 B1   40 A2   57 A1   54 B1   58 A1   43 B2   59 A1   44 B2                 
  1.184   1.185   1.208   1.211   1.216   1.217   1.220   1.254
 55 B1   41 A2   56 B1   45 B2   46 B2   60 A1   61 A1   42 A2                 
  1.271   1.283   1.294   1.298   1.312   1.324   1.352   1.379
 43 A2   47 B2   57 B1   44 A2   48 B2   62 A1   58 B1   63 A1                 
  1.388   1.390   1.423   1.461   1.463   1.468   1.470   1.477
 45 A2   59 B1   46 A2   64 A1   49 B2   65 A1   60 B1   50 B2                 
  1.486   1.490   1.490   1.491   1.539   1.554   1.571   1.585
 66 A1   47 A2   48 A2   51 B2   67 A1   61 B1   62 B1   52 B2                 
  1.645   1.734   1.768   1.775   1.792   1.826   1.853   1.862
 49 A2   68 A1   69 A1   63 B1   53 B2   70 A1   54 B2   50 A2                 
  1.879   1.880   1.920   1.932   1.944   1.949   1.949   1.969
 64 B1   55 B2   65 B1   71 A1   51 A2   72 A1   66 B1   56 B2                 
  1.973   1.973   1.983   2.003   2.045   2.051   2.052   2.079
 52 A2   73 A1   67 B1   53 A2   68 B1   57 B2   74 A1   69 B1                 
  2.129   2.147   2.161   2.161   2.217   2.231   2.234   2.244
 54 A2   75 A1   76 A1   58 B2   70 B1   71 B1   59 B2   55 A2                 
  2.274   2.277   2.297   2.297   2.332   2.349   2.372   2.377
 60 B2   72 B1   77 A1   78 A1   56 A2   61 B2   62 B2   79 A1                 
  2.383   2.387   2.393   2.447   2.488   2.500   2.506   2.611
 57 A2   73 B1   80 A1   74 B1   75 B1   58 A2   59 A2   63 B2                 
  2.639   2.657   2.669   2.679   2.704   2.720   2.732   2.753
 81 A1   60 A2   76 B1   64 B2   61 A2   77 B1   65 B2   82 A1                 
  2.764   2.803   2.832   2.849   2.876   2.882   2.931   2.947
 62 A2   78 B1   66 B2   79 B1   83 A1   63 A2   80 B1   84 A1                 
  2.952   3.063   3.073   3.083   3.238   3.358   3.496   3.566
 64 A2   65 A2   67 B2   81 B1   82 B1   85 A1   66 A2   83 B1                 
  4.224   4.246   4.251   4.271   4.326   4.346   4.351   4.356
 86 A1   84 B1   68 B2   87 A1   67 A2   88 A1   85 B1   69 B2                 
  4.417   4.418   4.420   4.464   4.487   4.595   4.679   4.929
 86 B1   89 A1   68 A2   70 B2   87 B1   69 A2   90 A1   88 B1                 
 --------------------------------------------------------------
 
          Ground-State Mulliken Net Atomic Charges

     Atom                 Charge (a.u.)
  ----------------------------------------
      1 C                    -0.224022
      2 C                    -0.164343
      3 C                     0.233565
      4 C                    -0.038177
      5 H                     0.177592
      6 C                    -0.666962
      7 H                     0.176493
      8 C                    -0.224032
      9 C                    -0.164343
     10 C                     0.233552
     11 C                    -0.038253
     12 H                     0.177593
     13 C                    -0.666962
     14 H                     0.176493
     15 C                    -0.223805
     16 C                     0.233535
     17 C                    -0.038208
     18 H                     0.177592
     19 C                    -0.223794
     20 C                     0.233549
     21 C                    -0.038132
     22 H                     0.177592
     23 H                     0.178369
     24 H                     0.178369
     25 H                     0.178369
     26 H                     0.178369
  ----------------------------------------
  Sum of atomic charges =     0.000000

 -----------------------------------------------------------------
                    Cartesian Multipole Moments
 -----------------------------------------------------------------
    Charge (ESU x 10^10)
                 0.0000
    Dipole Moment (Debye)
         X      -0.0000      Y      -0.0000      Z       0.0002
       Tot       0.0002
    Quadrupole Moments (Debye-Ang)
        XX     -81.3774     XY       0.0000     YY     -81.3581
        XZ       0.0000     YZ       0.0000     ZZ     -99.7592
    Octopole Moments (Debye-Ang^2)
       XXX      -0.0000    XXY       0.0000    XYY      -0.0000
       YYY      -0.0000    XXZ       0.0079    XYZ       0.0000
       YYZ       0.0008    XZZ      -0.0000    YZZ       0.0000
       ZZZ      -0.0001
    Hexadecapole Moments (Debye-Ang^3)
      XXXX   -2388.9066   XXXY       0.0000   XXYY    -621.4688
      XYYY      -0.0000   YYYY   -1384.1177   XXXZ       0.0000
      XXYZ       0.0000   XYYZ      -0.0000   YYYZ      -0.0000
      XXZZ    -513.2906   XYZZ       0.0000   YYZZ    -304.8703
      XZZZ       0.0000   YZZZ       0.0000   ZZZZ    -123.0161
 -----------------------------------------------------------------
 Calculating analytic gradient of the CIS energy
 CIS relaxed dipole moment
            1
    1   0.0000000
    2  -0.0000014
    3   0.0000883
	Magnitude:	 0.000 au	 0.000 Debye
 CIS 2 State Energy is -615.6434295219
 Gradient of the state energy (including CIS Excitation Energy)
            1           2           3           4           5           6
    1   0.0391737  -0.0208079  -0.0178302   0.0169412   0.0003303   0.0096370
    2  -0.0093378  -0.0000000   0.0206953   0.0064885   0.0001651  -0.0000000
    3   0.0000035  -0.0000064  -0.0000007   0.0000096  -0.0000092  -0.0000111
            7           8           9          10          11          12
    1   0.0000291  -0.0391738   0.0208079   0.0178303  -0.0169412  -0.0003303
    2  -0.0000000   0.0093379  -0.0000000  -0.0206953  -0.0064885  -0.0001651
    3   0.0000102   0.0000035  -0.0000064  -0.0000007   0.0000096  -0.0000092
           13          14          15          16          17          18
    1  -0.0096370  -0.0000291   0.0391737  -0.0178303   0.0169412   0.0003303
    2  -0.0000000   0.0000000   0.0093379  -0.0206953  -0.0064886  -0.0001651
    3  -0.0000111   0.0000102   0.0000035  -0.0000007   0.0000096  -0.0000092
           19          20          21          22          23          24
    1  -0.0391737   0.0178302  -0.0169412  -0.0003303   0.0005190  -0.0005190
    2  -0.0093378   0.0206953   0.0064885   0.0001651   0.0000571  -0.0000571
    3   0.0000035  -0.0000007   0.0000096  -0.0000092   0.0000004   0.0000004
           25          26
    1   0.0005190  -0.0005190
    2  -0.0000571   0.0000571
    3   0.0000004   0.0000004
 Gradient time:  CPU 101.11 s  wall 101.63 s
Archival summary:
1\1\qnode0211\JobtypUnspecified\ProcedureUnspecified\6-31+G*\1610\ckw3571\WedNov1008:54:512021WedNov1008:54:512021\0\\#,JobtypUnspecified,ProcedureUnspecified,6-31+G*,\\0,1\C\C,1,1.41917\C,2,1.39804,1,119.141\H,3,1.08753,2,119.25,1,-179.989,0\C,3,1.38994,2,120.665,1,0.00123541,0\H,5,1.08677,3,119.765,2,179.989,0\C,5,1.38994,3,120.47,2,-0.00265649,0\H,7,1.08753,5,120.084,3,-179.987,0\C,7,1.39804,5,120.665,3,0.00265649,0\C,1,1.43021,2,120.041,3,-179.993,0\C,10,1.41917,1,120.041,2,0,0\C,11,1.39804,10,119.141,1,179.993,0\H,12,1.08753,11,119.25,10,179.989,0\C,12,1.38994,11,120.665,10,-0.00123541,0\H,14,1.08677,12,119.765,11,-179.989,0\C,14,1.38994,12,120.47,11,0.00265649,0\H,16,1.08753,14,120.084,12,179.987,0\C,16,1.39804,14,120.665,12,-0.00265649,0\C,18,1.44265,16,122.212,14,-179.992,0\H,19,1.08728,18,118.247,16,-0.00478753,0\C,19,1.35167,18,121.312,16,179.993,0\H,21,1.08728,19,120.441,18,-179.997,0\C,2,1.44265,1,118.647,3,179.994,0\H,23,1.08728,2,118.247,1,-179.998,0\C,23,1.35167,2,121.312,1,-0.000819084,0\H,25,1.08728,23,120.441,2,-179.997,0\\\@

 Total job time:  708.50s(wall), 705.86s(cpu) 
 Wed Nov 10 08:54:51 2021

        *************************************************************
        *                                                           *
        *  Thank you very much for using Q-Chem.  Have a nice day.  *
        *                                                           *
        *************************************************************


remove work dirs /tmp/qchem27521.0 -- /tmp/qchem27521.-1
rm -rf /tmp/qchem27521
