
Running Job 1 of 1 pyrene_esVib_gsGeo.in
qchem pyrene_esVib_gsGeo.in_278334.0 /tmp/qchem278334/ 0
/software/QChem/5.3/exe/qcprog.exe_s pyrene_esVib_gsGeo.in_278334.0 /tmp/qchem278334/
                  Welcome to Q-Chem
     A Quantum Leap Into The Future Of Chemistry


 Q-Chem 5.3, Q-Chem, Inc., Pleasanton, CA (2020)

 License issued to: SRG Mark Ratner, Northwestern University

 Yihan Shao,  Zhengting Gan,  E. Epifanovsky,  A. T. B. Gilbert,  M. Wormit,  
 J. Kussmann,  A. W. Lange,  A. Behn,  Jia Deng,  Xintian Feng,  D. Ghosh,  
 M. Goldey,  P. R. Horn,  L. D. Jacobson,  I. Kaliman,  T. Kus,  A. Landau,  
 Jie Liu,  E. I. Proynov,  R. M. Richard,  R. P. Steele,  E. J. Sundstrom,  
 H. L. Woodcock III,  P. M. Zimmerman,  D. Zuev,  B. Alam,  B. Albrecht,  
 A. Aldossary,  E. Alguire,  S. A. Baeppler,  D. Barton,  Z. Benda,  
 Y. A. Bernard,  E. J. Berquist,  K. B. Bravaya,  H. Burton,  K. Carter-Fenk,  
 D. Casanova,  Chun-Min Chang,  Yunqing Chen,  A. Chien,  K. D. Closser,  
 M. P. Coons,  S. Coriani,  S. Dasgupta,  A. L. Dempwolff,  M. Diedenhofen,  
 Hainam Do,  R. G. Edgar,  Po-Tung Fang,  S. Faraji,  S. Fatehi,  
 Qingguo Feng,  J. Fosso-Tande,  J. Gayvert,  Qinghui Ge,  A. Ghysels,  
 G. Gidofalvi,  J. Gomes,  J. Gonthier,  S. Gulania,  A. Gunina,  D. Hait,  
 M. W. D. Hanson-Heine,  S. Hammes-Schiffer,  P. H. P. Harbach,  
 A. W. Hauser,  M. F. Herbst,  J. E. Herr,  E. G. Hohenstein,  Z. C. Holden,  
 S. Houck,  Kerwin Hui,  B. C. Huynh,  M. Ivanov,  T.-C. Jagau,  Hyunjun Ji,  
 B. Kaduk,  K. Khistyaev,  Jaehoon Kim,  P. Klunzinger,  K. Koh,  
 D. Kosenkov,  L. Koulias,  T. Kowalczyk,  C. M. Krauter,  A. Kunitsa,  
 Ka Un Lao,  A. Laurent,  K. V. Lawler,  Joonho Lee,  D. Lefrancois,  
 S. Lehtola,  D. S. Levine,  Yi-Pei Li,  You-Sheng Lin,  Fenglai Liu,  
 Kuan-Yu Liu,  E. Livshits,  M. Loipersberger,  A. Luenser,  P. Manohar,  
 E. Mansoor,  S. F. Manzer,  Shan-Ping Mao,  Yuezhi Mao,  N. Mardirossian,  
 A. V. Marenich,  T. Markovich,  L. A. Martinez-Martinez,  S. A. Maurer,  
 N. J. Mayhall,  S. C. McKenzie,  J.-M. Mewes,  P. Morgante,  A. F. Morrison,  
 J. W. Mullinax,  K. Nanda,  T. S. Nguyen-Beck,  R. Olivares-Amaya,  
 K. J. Oosterbaan,  J. A. Parkhill,  S. K. Paul,  F. Pavosevic,  Zheng Pei,  
 T. M. Perrine,  F. Plasser,  P. Pokhilko,  S. Prager,  A. Prociuk,  
 E. Ramos,  B. Rana,  D. R. Rehn,  F. Rob,  E. Rossomme,  M. Scheurer,  
 M. Schneider,  N. Sergueev,  S. M. Sharada,  S. Sharma,  W. Skomorowski,  
 D. W. Small,  T. Stauch,  C. J. Stein,  T. Stein,  Yu-Chuan Su,  
 S. P. Veccham,  Zhen Tao,  A. J. W. Thom,  A. Tkatchenko,  T. Tsuchimochi,  
 N. M. Tubman,  L. Vogt,  M. L. Vidal,  O. Vydrov,  M. A. Watson,  J. Wenzel,  
 M. de Wergifosse,  T. A. Wesolowski,  A. White,  J. Witte,  A. Yamada,  
 Jun Yang,  K. Yao,  S. Yeganeh,  S. R. Yost,  Zhi-Qiang You,  A. Zech,  
 Igor Ying Zhang,  Xing Zhang,  Yan Zhao,  Ying Zhu,  B. R. Brooks,  
 G. K. L. Chan,  C. J. Cramer,  M. S. Gordon,  W. J. Hehre,  A. Klamt,  
 M. W. Schmidt,  C. D. Sherrill,  D. G. Truhlar,  A. Aspuru-Guzik,  R. Baer,  
 A. T. Bell,  N. A. Besley,  Jeng-Da Chai,  A. E. DePrince, III,  
 R. A. DiStasio Jr.,  A. Dreuw,  B. D. Dunietz,  T. R. Furlani,  
 Chao-Ping Hsu,  Yousung Jung,  Jing Kong,  D. S. Lambrecht,  WanZhen Liang,  
 C. Ochsenfeld,  V. A. Rassolov,  L. V. Slipchenko,  J. E. Subotnik,  
 T. Van Voorhis,  J. M. Herbert,  A. I. Krylov,  P. M. W. Gill,  M. Head-Gordon

 Contributors to earlier versions of Q-Chem not listed above: 
 R. D. Adamson,  B. Austin,  J. Baker,  G. J. O. Beran,  K. Brandhorst,  
 S. T. Brown,  E. F. C. Byrd,  A. K. Chakraborty,  C.-L. Cheng,  
 Siu Hung Chien,  D. M. Chipman,  D. L. Crittenden,  H. Dachsel,  
 R. J. Doerksen,  A. D. Dutoi,  L. Fusti-Molnar,  W. A. Goddard III,  
 A. Golubeva-Zadorozhnaya,  S. R. Gwaltney,  G. Hawkins,  A. Heyden,  
 S. Hirata,  G. Kedziora,  F. J. Keil,  C. Kelley,  Jihan Kim,  R. A. King,  
 R. Z. Khaliullin,  P. P. Korambath,  W. Kurlancheek,  A. M. Lee,  M. S. Lee,  
 S. V. Levchenko,  Ching Yeh Lin,  D. Liotard,  R. C. Lochan,  I. Lotan,  
 P. E. Maslen,  N. Nair,  D. P. O'Neill,  D. Neuhauser,  E. Neuscamman,  
 C. M. Oana,  R. Olson,  B. Peters,  R. Peverati,  P. A. Pieniazek,  
 Y. M. Rhee,  J. Ritchie,  M. A. Rohrdanz,  E. Rosta,  N. J. Russ,  
 H. F. Schaefer III,  N. E. Schultz,  N. Shenvi,  A. C. Simmonett,  A. Sodt,  
 D. Stuck,  K. S. Thanthiriwatte,  V. Vanovschi,  Tao Wang,  A. Warshel,  
 C. F. Williams,  Q. Wu,  X. Xu,  W. Zhang

 Please cite Q-Chem as follows:
 Y. Shao et al., Mol. Phys. 113, 184-215 (2015)
 DOI: 10.1080/00268976.2014.952696

 Q-Chem 5.3.1 for Intel X86 EM64T Linux

 Parts of Q-Chem use Armadillo 9.800.1 (Horizon Scraper).
 http://arma.sourceforge.net/

 Q-Chem begins on Thu Nov 10 11:24:39 2022  

Host: 
0

     Scratch files written to /tmp/qchem278334//
 Aug2920 |scratch|qcdevops|jenkins|workspace|build_RNUM 4082   
Processing $rem in /software/QChem/5.3/config/preferences:
Processing $rem in /home/ckw3571/.qchemrc:

Checking the input file for inconsistencies... 	...done.

--------------------------------------------------------------
User input:
--------------------------------------------------------------
$molecule
0 1
C   -0.6758342   -2.4610560   -0.0000269
C   -0.7151052    0.0000000   -0.0001603
C   -1.4255713   -1.2285301   -0.0000848
C   -2.8234431   -1.2065645    0.0000673
H   -3.3696814   -2.1469592   -0.0000599
C   -3.5134694    0.0000000    0.0001699
H   -4.6002408    0.0000000    0.0004748
C    0.6758342    2.4610560   -0.0000269
C    0.7151052    0.0000000   -0.0001603
C    1.4255713    1.2285301   -0.0000848
C    2.8234431    1.2065645    0.0000673
H    3.3696814    2.1469592   -0.0000599
C    3.5134694   -0.0000000    0.0001699
H    4.6002408   -0.0000000    0.0004748
C   -0.6758342    2.4610560   -0.0000269
C   -1.4255713    1.2285301   -0.0000848
C   -2.8234431    1.2065645    0.0000673
H   -3.3696814    2.1469592   -0.0000599
C    0.6758342   -2.4610560   -0.0000269
C    1.4255713   -1.2285301   -0.0000848
C    2.8234431   -1.2065645    0.0000673
H    3.3696814   -2.1469592   -0.0000599
H   -1.2267063   -3.3984563    0.0000611
H    1.2267063    3.3984563    0.0000611
H   -1.2267063    3.3984563    0.0000611
H    1.2267063   -3.3984563    0.0000611
$end

$rem
BASIS  =  6-31+G*
CIS_N_ROOTS  =  7
CIS_STATE_DERIV =  2
CIS_TRIPLETS  =  0
EXCHANGE  =  B3LYP
GUI  =  0
JOB_TYPE  =  Frequency
VIBMAN_PRINT = 4
$end
--------------------------------------------------------------
 ----------------------------------------------------------------
             Standard Nuclear Orientation (Angstroms)
    I     Atom           X                Y                Z
 ----------------------------------------------------------------
    1      C      -0.6758342000    -2.4610560000    -0.0000269377
    2      C      -0.7151052000    -0.0000000000    -0.0001603377
    3      C      -1.4255713000    -1.2285301000    -0.0000848377
    4      C      -2.8234431000    -1.2065645000     0.0000672623
    5      H      -3.3696814000    -2.1469592000    -0.0000599377
    6      C      -3.5134694000     0.0000000000     0.0001698623
    7      H      -4.6002408000     0.0000000000     0.0004747623
    8      C       0.6758342000     2.4610560000    -0.0000269377
    9      C       0.7151052000    -0.0000000000    -0.0001603377
   10      C       1.4255713000     1.2285301000    -0.0000848377
   11      C       2.8234431000     1.2065645000     0.0000672623
   12      H       3.3696814000     2.1469592000    -0.0000599377
   13      C       3.5134694000    -0.0000000000     0.0001698623
   14      H       4.6002408000     0.0000000000     0.0004747623
   15      C      -0.6758342000     2.4610560000    -0.0000269377
   16      C      -1.4255713000     1.2285301000    -0.0000848377
   17      C      -2.8234431000     1.2065645000     0.0000672623
   18      H      -3.3696814000     2.1469592000    -0.0000599377
   19      C       0.6758342000    -2.4610560000    -0.0000269377
   20      C       1.4255713000    -1.2285301000    -0.0000848377
   21      C       2.8234431000    -1.2065645000     0.0000672623
   22      H       3.3696814000    -2.1469592000    -0.0000599377
   23      H      -1.2267063000    -3.3984563000     0.0000610623
   24      H       1.2267063000     3.3984563000     0.0000610623
   25      H      -1.2267063000     3.3984563000     0.0000610623
   26      H       1.2267063000    -3.3984563000     0.0000610623
 ----------------------------------------------------------------
 Molecular Point Group                 C2v   NOp =  4
 Largest Abelian Subgroup              C2v   NOp =  4
 Nuclear Repulsion Energy =         967.95489707 hartrees
 There are       53 alpha and       53 beta electrons
 Requested basis set is 6-31+G(d)
 There are 100 shells and 324 basis functions

 Total QAlloc Memory Limit   8000 MB
 Mega-Array Size       188 MB
 MEM_STATIC part       192 MB
 A cutoff of  1.0D-11 yielded   4245 shell pairs
 There are     47609 function pairs
 Smallest overlap matrix eigenvalue = 1.11E-08

 Q-Chem warning in module stvman/mkSTV.C, line 318:

 Overlap eigenvalue is smaller than square root of threshold
 Use THRESH >= 12 to get rid of this warning

 Linear dependence detected in AO basis
 Tighter screening thresholds may be required for diffuse basis sets
 Use S2THRESH > 14 and THRESH = 14 in case of SCF convergence issues
 Number of orthogonalized atomic orbitals = 317
 Maximum deviation from orthogonality = 1.788E-10
 Guess from superposition of atomic densities
 Warning:  Energy on first SCF cycle will be non-variational
 SAD guess density has 106.000000 electrons

 -----------------------------------------------------------------------
  General SCF calculation program by
  Eric Jon Sundstrom, Paul Horn, Yuezhi Mao, Dmitri Zuev, Alec White,
  David Stuck, Shaama M.S., Shane Yost, Joonho Lee, David Small,
  Daniel Levine, Susi Lehtola, Hugh Burton, Evgeny Epifanovsky,
  Bang C. Huynh
 -----------------------------------------------------------------------
 Exchange:     0.2000 Hartree-Fock + 0.0800 Slater + 0.7200 B88
 Correlation:  0.1900 VWN1RPA + 0.8100 LYP
 Using SG-1 standard quadrature grid
 A restricted SCF calculation will be
 performed using DIIS
 SCF converges when DIIS error is below 1.0e-08
 ---------------------------------------
  Cycle       Energy         DIIS error
 ---------------------------------------
    1    -620.0073074617      4.21e-02  
    2    -615.6161715875      3.44e-03  
    3    -615.6364148288      3.26e-03  
    4    -615.7901321145      3.03e-04  
    5    -615.7908429318      1.97e-04  
    6    -615.7913298009      5.16e-05  
    7    -615.7913594378      2.09e-05  
    8    -615.7913651401      3.80e-06  
    9    -615.7913653141      1.33e-06  
   10    -615.7913653388      1.24e-07  
   11    -615.7913653469      3.38e-08  
   12    -615.7913653477      1.66e-08  
   13    -615.7913653260      3.92e-09  Convergence criterion met
 ---------------------------------------
 SCF time:   CPU 63.66s  wall 64.00s 
 SCF   energy in the final basis set =     -615.7913653260
 Total energy in the final basis set =     -615.7913653260
 
 Direct TDDFT/TDA calculation will be performed
 Exchange:     0.2000 Hartree-Fock + 0.0800 Slater + 0.7200 B88
 Correlation:  0.1900 VWN1RPA + 0.8100 LYP
 Using SG-1 standard quadrature grid
 Singlet excitation energies requested
 CIS energy converged when residual is below 10e- 6
 ---------------------------------------------------
 Iter    Rts Conv    Rts Left    Ttl Dev     Max Dev
 ---------------------------------------------------
   1         0           7      0.004815    0.001092
   2         0           7      0.001642    0.001049
   3         0           7      0.000403    0.000203
   4         1           6      0.000107    0.000049
   5         2           5      0.000039    0.000021
   6         5           2      0.000299    0.000277
   7         5           2      0.000051    0.000045
   8         5           2      0.000022    0.000019
   9         6           1      0.000008    0.000006
  10         7           0      0.000003    0.000001    Roots Converged
 ---------------------------------------------------
 
 ---------------------------------------------------
         TDDFT/TDA Excitation Energies              
 ---------------------------------------------------

 Excited state   1: excitation energy (eV) =    3.8243
 Total energy for state  1:                  -615.65082580 au
    Multiplicity: Singlet
    Trans. Mom.:  0.0000 X   0.0577 Y  -0.0000 Z
    Strength   :     0.0003122229
    D(   52) --> V(    1) amplitude = -0.6760
    D(   53) --> V(    2) amplitude =  0.7340

 Excited state   2: excitation energy (eV) =    3.9337
 Total energy for state  2:                  -615.64680479 au
    Multiplicity: Singlet
    Trans. Mom.: -1.8014 X   0.0000 Y  -0.0000 Z
    Strength   :     0.3127225023
    D(   52) --> V(    2) amplitude =  0.3910
    D(   53) --> V(    1) amplitude =  0.8982

 Excited state   3: excitation energy (eV) =    4.3829
 Total energy for state  3:                  -615.63029720 au
    Multiplicity: Singlet
    Trans. Mom.:  0.0000 X  -0.0000 Y  -0.0000 Z
    Strength   :     0.0000000000
    D(   51) --> V(    1) amplitude = -0.2838
    D(   53) --> V(    3) amplitude =  0.9548

 Excited state   4: excitation energy (eV) =    4.7540
 Total energy for state  4:                  -615.61665968 au
    Multiplicity: Singlet
    Trans. Mom.: -0.0000 X   0.0000 Y  -0.0000 Z
    Strength   :     0.0000000000
    D(   51) --> V(    1) amplitude =  0.9479
    D(   53) --> V(    3) amplitude =  0.2766

 Excited state   5: excitation energy (eV) =    4.8673
 Total energy for state  5:                  -615.61249416 au
    Multiplicity: Singlet
    Trans. Mom.: -0.0000 X   1.6687 Y   0.0000 Z
    Strength   :     0.3320473076
    D(   50) --> V(    3) amplitude =  0.2602
    D(   51) --> V(    4) amplitude =  0.2440
    D(   52) --> V(    1) amplitude =  0.6727
    D(   53) --> V(    2) amplitude =  0.6161

 Excited state   6: excitation energy (eV) =    5.0004
 Total energy for state  6:                  -615.60760344 au
    Multiplicity: Singlet
    Trans. Mom.: -0.0000 X  -0.0000 Y   0.0000 Z
    Strength   :     0.0000000003
    D(   50) --> V(    1) amplitude = -0.5420
    D(   53) --> V(    4) amplitude =  0.8216

 Excited state   7: excitation energy (eV) =    5.2185
 Total energy for state  7:                  -615.59958950 au
    Multiplicity: Singlet
    Trans. Mom.: -0.0000 X   0.0000 Y  -0.0000 Z
    Strength   :     0.0000000001
    D(   51) --> V(    2) amplitude = -0.6142
    D(   52) --> V(    3) amplitude =  0.7696
 
 ---------------------------------------------------
 Calculating Relaxed Density
 ---------------------------------------------------
 Iter    Rts Conv    Rts Left    Ttl Dev     Max Dev
 ---------------------------------------------------
   1         0           7      0.000579    0.000161
   2         0           7      0.000085    0.000024
   3         5           2      0.000003    0.000001
   4         7           0      0.000000    0.000000    Roots Converged
 ---------------------------------------------------
  SETman timing summary (seconds)
  CPU time               483.02s
  System time              0.00s
  Wall time              484.16s
 
 --------------------------------------------------------------
             Orbital Energies (a.u.) and Symmetries
 --------------------------------------------------------------
 
 Alpha MOs, Restricted
 -- Occupied --                  
-10.206 -10.206 -10.206 -10.206 -10.205 -10.205 -10.200 -10.200
  1 A1    1 B1    1 A2    1 B2    2 A1    2 B1    3 A1    2 B2                 
-10.199 -10.199 -10.199 -10.199 -10.198 -10.198 -10.198 -10.198
  2 A2    3 B1    4 B1    4 A1    3 A2    3 B2    5 A1    5 B1                 
 -0.901  -0.860  -0.838  -0.805  -0.773  -0.756  -0.737  -0.718
  6 A1    6 B1    4 B2    7 A1    4 A2    8 A1    7 B1    5 B2                 
 -0.635  -0.633  -0.630  -0.616  -0.551  -0.532  -0.524  -0.509
  9 A1    5 A2    8 B1    6 B2    9 B1   10 A1    6 A2    7 B2                 
 -0.497  -0.478  -0.448  -0.441  -0.440  -0.423  -0.419  -0.406
 11 A1   10 B1   12 A1    8 B2    7 A2   13 A1   14 A1   11 B1                 
 -0.406  -0.397  -0.373  -0.371  -0.370  -0.349  -0.336  -0.326
  9 B2    8 A2   12 B1   10 B2   13 B1   11 B2   15 A1    9 A2                 
 -0.305  -0.281  -0.264  -0.239  -0.207
 16 A1   10 A2   17 A1   14 B1   12 B2                                         
 -- Virtual --                   
 -0.064  -0.034  -0.017   0.001   0.003   0.012   0.014   0.026
 11 A2   18 A1   15 B1   13 B2   19 A1   16 B1   14 B2   20 A1                 
  0.029   0.045   0.045   0.046   0.047   0.048   0.061   0.066
 12 A2   21 A1   17 B1   15 B2   18 B1   22 A1   13 A2   19 B1                 
  0.072   0.076   0.077   0.083   0.096   0.097   0.107   0.108
 23 A1   14 A2   16 B2   20 B1   17 B2   24 A1   18 B2   21 B1                 
  0.109   0.127   0.127   0.137   0.141   0.141   0.144   0.149
 25 A1   22 B1   26 A1   15 A2   27 A1   19 B2   16 A2   28 A1                 
  0.153   0.162   0.163   0.173   0.180   0.181   0.183   0.184
 17 A2   29 A1   23 B1   24 B1   20 B2   25 B1   30 A1   18 A2                 
  0.186   0.188   0.190   0.194   0.208   0.209   0.210   0.223
 21 B2   31 A1   22 B2   32 A1   19 A2   26 B1   23 B2   27 B1                 
  0.225   0.228   0.235   0.237   0.240   0.247   0.249   0.249
 20 A2   24 B2   21 A2   33 A1   28 B1   29 B1   30 B1   25 B2                 
  0.253   0.254   0.261   0.263   0.264   0.274   0.282   0.285
 34 A1   35 A1   22 A2   31 B1   26 B2   23 A2   36 A1   32 B1                 
  0.295   0.297   0.300   0.301   0.302   0.308   0.309   0.320
 37 A1   27 B2   38 A1   33 B1   24 A2   28 B2   34 B1   39 A1                 
  0.322   0.326   0.333   0.335   0.340   0.344   0.366   0.386
 25 A2   29 B2   35 B1   40 A1   26 A2   36 B1   37 B1   41 A1                 
  0.397   0.416   0.435   0.437   0.448   0.465   0.476   0.498
 30 B2   27 A2   42 A1   31 B2   38 B1   28 A2   39 B1   29 A2                 
  0.535   0.556   0.568   0.601   0.653   0.659   0.660   0.669
 30 A2   40 B1   32 B2   43 A1   44 A1   33 B2   31 A2   45 A1                 
  0.679   0.689   0.692   0.692   0.722   0.724   0.726   0.730
 41 B1   42 B1   34 B2   46 A1   32 A2   47 A1   43 B1   35 B2                 
  0.732   0.739   0.741   0.746   0.753   0.754   0.759   0.773
 36 B2   44 B1   37 B2   33 A2   45 B1   48 A1   49 A1   50 A1                 
  0.779   0.780   0.783   0.797   0.798   0.802   0.803   0.807
 51 A1   34 A2   38 B2   35 A2   39 B2   52 A1   46 B1   47 B1                 
  0.840   0.858   0.869   0.885   0.898   0.901   0.917   0.928
 48 B1   36 A2   53 A1   37 A2   49 B1   54 A1   50 B1   40 B2                 
  0.952   0.955   0.963   0.968   0.977   1.000   1.020   1.030
 51 B1   38 A2   55 A1   41 B2   52 B1   56 A1   39 A2   42 B2                 
  1.055   1.063   1.099   1.111   1.132   1.167   1.176   1.178
 53 B1   40 A2   57 A1   54 B1   58 A1   43 B2   59 A1   44 B2                 
  1.184   1.185   1.208   1.211   1.216   1.217   1.220   1.254
 55 B1   41 A2   56 B1   45 B2   46 B2   60 A1   61 A1   42 A2                 
  1.271   1.283   1.294   1.296   1.312   1.324   1.351   1.379
 43 A2   47 B2   57 B1   44 A2   48 B2   62 A1   58 B1   63 A1                 
  1.388   1.390   1.423   1.461   1.463   1.468   1.470   1.477
 45 A2   59 B1   46 A2   64 A1   49 B2   65 A1   60 B1   50 B2                 
  1.486   1.490   1.490   1.491   1.539   1.554   1.571   1.585
 66 A1   47 A2   48 A2   51 B2   67 A1   61 B1   62 B1   52 B2                 
  1.645   1.734   1.768   1.774   1.791   1.826   1.853   1.862
 49 A2   68 A1   69 A1   63 B1   53 B2   70 A1   54 B2   50 A2                 
  1.879   1.880   1.919   1.932   1.943   1.949   1.949   1.969
 64 B1   55 B2   65 B1   71 A1   51 A2   66 B1   72 A1   56 B2                 
  1.972   1.973   1.983   2.003   2.045   2.051   2.052   2.079
 52 A2   73 A1   67 B1   53 A2   68 B1   57 B2   74 A1   69 B1                 
  2.129   2.147   2.161   2.161   2.217   2.230   2.234   2.244
 54 A2   75 A1   76 A1   58 B2   70 B1   71 B1   59 B2   55 A2                 
  2.274   2.277   2.297   2.297   2.332   2.349   2.372   2.377
 60 B2   72 B1   77 A1   78 A1   56 A2   61 B2   62 B2   79 A1                 
  2.383   2.387   2.393   2.447   2.488   2.500   2.506   2.611
 57 A2   73 B1   80 A1   74 B1   75 B1   58 A2   59 A2   63 B2                 
  2.639   2.657   2.668   2.679   2.704   2.720   2.732   2.753
 81 A1   60 A2   76 B1   64 B2   61 A2   77 B1   65 B2   82 A1                 
  2.764   2.803   2.832   2.849   2.876   2.882   2.931   2.947
 62 A2   78 B1   66 B2   79 B1   83 A1   63 A2   80 B1   84 A1                 
  2.951   3.063   3.073   3.082   3.238   3.358   3.496   3.565
 64 A2   65 A2   67 B2   81 B1   82 B1   85 A1   66 A2   83 B1                 
  4.223   4.245   4.251   4.270   4.326   4.348   4.350   4.357
 86 A1   84 B1   68 B2   87 A1   67 A2   88 A1   85 B1   69 B2                 
  4.416   4.417   4.421   4.463   4.488   4.594   4.679   4.928
 86 B1   89 A1   68 A2   70 B2   87 B1   69 A2   90 A1   88 B1                 
 
 Beta MOs, Restricted
 -- Occupied --                  
-10.206 -10.206 -10.206 -10.206 -10.205 -10.205 -10.200 -10.200
  1 A1    1 B1    1 A2    1 B2    2 A1    2 B1    3 A1    2 B2                 
-10.199 -10.199 -10.199 -10.199 -10.198 -10.198 -10.198 -10.198
  2 A2    3 B1    4 B1    4 A1    3 A2    3 B2    5 A1    5 B1                 
 -0.901  -0.860  -0.838  -0.805  -0.773  -0.756  -0.737  -0.718
  6 A1    6 B1    4 B2    7 A1    4 A2    8 A1    7 B1    5 B2                 
 -0.635  -0.633  -0.630  -0.616  -0.551  -0.532  -0.524  -0.509
  9 A1    5 A2    8 B1    6 B2    9 B1   10 A1    6 A2    7 B2                 
 -0.497  -0.478  -0.448  -0.441  -0.440  -0.423  -0.419  -0.406
 11 A1   10 B1   12 A1    8 B2    7 A2   13 A1   14 A1   11 B1                 
 -0.406  -0.397  -0.373  -0.371  -0.370  -0.349  -0.336  -0.326
  9 B2    8 A2   12 B1   10 B2   13 B1   11 B2   15 A1    9 A2                 
 -0.305  -0.281  -0.264  -0.239  -0.207
 16 A1   10 A2   17 A1   14 B1   12 B2                                         
 -- Virtual --                   
 -0.064  -0.034  -0.017   0.001   0.003   0.012   0.014   0.026
 11 A2   18 A1   15 B1   13 B2   19 A1   16 B1   14 B2   20 A1                 
  0.029   0.045   0.045   0.046   0.047   0.048   0.061   0.066
 12 A2   21 A1   17 B1   15 B2   18 B1   22 A1   13 A2   19 B1                 
  0.072   0.076   0.077   0.083   0.096   0.097   0.107   0.108
 23 A1   14 A2   16 B2   20 B1   17 B2   24 A1   18 B2   21 B1                 
  0.109   0.127   0.127   0.137   0.141   0.141   0.144   0.149
 25 A1   22 B1   26 A1   15 A2   27 A1   19 B2   16 A2   28 A1                 
  0.153   0.162   0.163   0.173   0.180   0.181   0.183   0.184
 17 A2   29 A1   23 B1   24 B1   20 B2   25 B1   30 A1   18 A2                 
  0.186   0.188   0.190   0.194   0.208   0.209   0.210   0.223
 21 B2   31 A1   22 B2   32 A1   19 A2   26 B1   23 B2   27 B1                 
  0.225   0.228   0.235   0.237   0.240   0.247   0.249   0.249
 20 A2   24 B2   21 A2   33 A1   28 B1   29 B1   30 B1   25 B2                 
  0.253   0.254   0.261   0.263   0.264   0.274   0.282   0.285
 34 A1   35 A1   22 A2   31 B1   26 B2   23 A2   36 A1   32 B1                 
  0.295   0.297   0.300   0.301   0.302   0.308   0.309   0.320
 37 A1   27 B2   38 A1   33 B1   24 A2   28 B2   34 B1   39 A1                 
  0.322   0.326   0.333   0.335   0.340   0.344   0.366   0.386
 25 A2   29 B2   35 B1   40 A1   26 A2   36 B1   37 B1   41 A1                 
  0.397   0.416   0.435   0.437   0.448   0.465   0.476   0.498
 30 B2   27 A2   42 A1   31 B2   38 B1   28 A2   39 B1   29 A2                 
  0.535   0.556   0.568   0.601   0.653   0.659   0.660   0.669
 30 A2   40 B1   32 B2   43 A1   44 A1   33 B2   31 A2   45 A1                 
  0.679   0.689   0.692   0.692   0.722   0.724   0.726   0.730
 41 B1   42 B1   34 B2   46 A1   32 A2   47 A1   43 B1   35 B2                 
  0.732   0.739   0.741   0.746   0.753   0.754   0.759   0.773
 36 B2   44 B1   37 B2   33 A2   45 B1   48 A1   49 A1   50 A1                 
  0.779   0.780   0.783   0.797   0.798   0.802   0.803   0.807
 51 A1   34 A2   38 B2   35 A2   39 B2   52 A1   46 B1   47 B1                 
  0.840   0.858   0.869   0.885   0.898   0.901   0.917   0.928
 48 B1   36 A2   53 A1   37 A2   49 B1   54 A1   50 B1   40 B2                 
  0.952   0.955   0.963   0.968   0.977   1.000   1.020   1.030
 51 B1   38 A2   55 A1   41 B2   52 B1   56 A1   39 A2   42 B2                 
  1.055   1.063   1.099   1.111   1.132   1.167   1.176   1.178
 53 B1   40 A2   57 A1   54 B1   58 A1   43 B2   59 A1   44 B2                 
  1.184   1.185   1.208   1.211   1.216   1.217   1.220   1.254
 55 B1   41 A2   56 B1   45 B2   46 B2   60 A1   61 A1   42 A2                 
  1.271   1.283   1.294   1.296   1.312   1.324   1.351   1.379
 43 A2   47 B2   57 B1   44 A2   48 B2   62 A1   58 B1   63 A1                 
  1.388   1.390   1.423   1.461   1.463   1.468   1.470   1.477
 45 A2   59 B1   46 A2   64 A1   49 B2   65 A1   60 B1   50 B2                 
  1.486   1.490   1.490   1.491   1.539   1.554   1.571   1.585
 66 A1   47 A2   48 A2   51 B2   67 A1   61 B1   62 B1   52 B2                 
  1.645   1.734   1.768   1.774   1.791   1.826   1.853   1.862
 49 A2   68 A1   69 A1   63 B1   53 B2   70 A1   54 B2   50 A2                 
  1.879   1.880   1.919   1.932   1.943   1.949   1.949   1.969
 64 B1   55 B2   65 B1   71 A1   51 A2   66 B1   72 A1   56 B2                 
  1.972   1.973   1.983   2.003   2.045   2.051   2.052   2.079
 52 A2   73 A1   67 B1   53 A2   68 B1   57 B2   74 A1   69 B1                 
  2.129   2.147   2.161   2.161   2.217   2.230   2.234   2.244
 54 A2   75 A1   76 A1   58 B2   70 B1   71 B1   59 B2   55 A2                 
  2.274   2.277   2.297   2.297   2.332   2.349   2.372   2.377
 60 B2   72 B1   77 A1   78 A1   56 A2   61 B2   62 B2   79 A1                 
  2.383   2.387   2.393   2.447   2.488   2.500   2.506   2.611
 57 A2   73 B1   80 A1   74 B1   75 B1   58 A2   59 A2   63 B2                 
  2.639   2.657   2.668   2.679   2.704   2.720   2.732   2.753
 81 A1   60 A2   76 B1   64 B2   61 A2   77 B1   65 B2   82 A1                 
  2.764   2.803   2.832   2.849   2.876   2.882   2.931   2.947
 62 A2   78 B1   66 B2   79 B1   83 A1   63 A2   80 B1   84 A1                 
  2.951   3.063   3.073   3.082   3.238   3.358   3.496   3.565
 64 A2   65 A2   67 B2   81 B1   82 B1   85 A1   66 A2   83 B1                 
  4.223   4.245   4.251   4.270   4.326   4.348   4.350   4.357
 86 A1   84 B1   68 B2   87 A1   67 A2   88 A1   85 B1   69 B2                 
  4.416   4.417   4.421   4.463   4.488   4.594   4.679   4.928
 86 B1   89 A1   68 A2   70 B2   87 B1   69 A2   90 A1   88 B1                 
 --------------------------------------------------------------
 
          Ground-State Mulliken Net Atomic Charges

     Atom                 Charge (a.u.)
  ----------------------------------------
      1 C                    -0.159420
      2 C                    -0.141808
      3 C                     0.225116
      4 C                    -0.128632
      5 H                     0.181993
      6 C                    -0.640739
      7 H                     0.180901
      8 C                    -0.159420
      9 C                    -0.141808
     10 C                     0.225116
     11 C                    -0.128632
     12 H                     0.181993
     13 C                    -0.640739
     14 H                     0.180901
     15 C                    -0.159420
     16 C                     0.225116
     17 C                    -0.128632
     18 H                     0.181993
     19 C                    -0.159420
     20 C                     0.225116
     21 C                    -0.128632
     22 H                     0.181993
     23 H                     0.181766
     24 H                     0.181766
     25 H                     0.181766
     26 H                     0.181766
  ----------------------------------------
  Sum of atomic charges =     0.000000

 -----------------------------------------------------------------
                    Cartesian Multipole Moments
 -----------------------------------------------------------------
    Charge (ESU x 10^10)
                 0.0000
    Dipole Moment (Debye)
         X       0.0000      Y       0.0000      Z       0.0002
       Tot       0.0002
    Quadrupole Moments (Debye-Ang)
        XX     -81.3395     XY       0.0000     YY     -81.3197
        XZ       0.0000     YZ       0.0000     ZZ     -99.7757
    Octopole Moments (Debye-Ang^2)
       XXX      -0.0000    XXY       0.0000    XYY      -0.0000
       YYY       0.0000    XXZ       0.0080    XYZ       0.0000
       YYZ       0.0008    XZZ      -0.0000    YZZ       0.0000
       ZZZ      -0.0001
    Hexadecapole Moments (Debye-Ang^3)
      XXXX   -2387.5424   XXXY       0.0000   XXYY    -621.1357
      XYYY       0.0000   YYYY   -1383.4046   XXXZ       0.0000
      XXYZ       0.0000   XYYZ      -0.0000   YYYZ       0.0000
      XXZZ    -513.4089   XYZZ       0.0000   YYZZ    -304.9309
      XZZZ      -0.0000   YZZZ       0.0000   ZZZZ    -123.0397
 -----------------------------------------------------------------
 Calculating MO derivatives via CPSCF
   1         3          78      0.398820    0.054383
   2         3          78      0.058274    0.006173
   3         3          78      0.003909    0.000575
   4        26          55      0.000255    0.000050
   5        79           2      0.000004    0.000003
   6        81           0      0.000000    0.000000    Roots Converged
 Time for AOints: 178.5 s (CPU) 179.0 s (wall)
 ------------------------------------------------------------------------------
                     AOints        : Timing summary (seconds)
 ------------------------------------------------------------------------------
     job step          cpu (% of tot)      sys (% of tot)     wall (% of tot)
 ------------------------------------------------------------------------------
  cpscf_lag         0.3018E+03 (25.5)   0.4000E-04 ( 6.5)   0.3026E+03 (25.5)
  iterzp            0.7011E+03 (59.3)   0.5580E-03 (91.2)   0.7028E+03 (59.3)
  make_fx           0.0000E+00 ( 0.0)   0.0000E+00 ( 0.0)   0.0000E+00 ( 0.0)
  AOints            0.1785E+03 (15.1)   0.5000E-05 ( 0.8)   0.1790E+03 (15.1)
 ------------------------------------------------------------------------------
   Grand Totals     0.1182E+04          0.6120E-03          0.1185E+04
 ------------------------------------------------------------------------------
 Calculating CIS amplitude derivatives via CPCIS
 CIS relaxed dipole moment
            1
    1  -0.0000000
    2   0.0000000
    3  -0.0000048
	Magnitude:	 0.000 au	 0.000 Debye
 CIS Excitation Energy is    0.1445605321
 Gradient of the CIS Excitation Energy
            1           2           3           4           5           6
    1  -0.1527453   0.0640196  -0.0159708   0.0040629  -0.0947974  -0.0798225
    2  -0.0359521   0.0000000  -0.1237816  -0.1156453  -0.1564703  -0.0000000
    3  -0.0000019  -0.0000772   0.0000198   0.0000392  -0.0000288  -0.0000715
            7           8           9          10          11          12
    1  -0.1864454   0.1527453  -0.0640196   0.0159708  -0.0040629   0.0947974
    2  -0.0000000   0.0359521  -0.0000000   0.1237816   0.1156453   0.1564703
    3   0.0000608  -0.0000019  -0.0000772   0.0000198   0.0000392  -0.0000288
           13          14          15          16          17          18
    1   0.0798225   0.1864454  -0.1527453  -0.0159708   0.0040629  -0.0947974
    2  -0.0000000   0.0000000   0.0359521   0.1237816   0.1156453   0.1564703
    3  -0.0000715   0.0000608  -0.0000019   0.0000198   0.0000392  -0.0000288
           19          20          21          22          23          24
    1   0.1527453   0.0159708  -0.0040629   0.0947974  -0.0908998   0.0908998
    2  -0.0359521  -0.1237816  -0.1156453  -0.1564703  -0.1599579   0.1599579
    3  -0.0000019   0.0000198   0.0000392  -0.0000288   0.0000156   0.0000156
           25          26
    1  -0.0908998   0.0908998
    2   0.1599579  -0.1599579
    3   0.0000156   0.0000156

 IstLag:0 LstLag:80 NpeLag:81 IstAtom:1 LstAtom:27 NpeAtoms:27 myseg:0 NSEG:1 
f*R^(x) and f*R
   1         3          78      0.259490    0.044568
   2         3          78      0.017444    0.003583
   3        20          61      0.000926    0.000208
   4        56          25      0.000063    0.000015
   5        76           5      0.000008    0.000002
   6        81           0      0.000000    0.000000    Roots Converged
 CPCIS time:  CPU 1428.80 s  wall 1432.17 s
 transition dipole derivative
            1           2           3
    1   1.1409389  -0.3600411  -0.0000064
    2  -0.6339413   0.4680803   0.0000394
    3   0.0000013   0.0000677   0.0885527
    4   1.4703925   0.0000002  -0.0000079
    5  -0.0000002   0.6088413  -0.0000000
    6   0.0000236   0.0000000   0.0343362
    7  -1.8090971   0.8140133   0.0000835
    8   0.0655770  -0.7714543  -0.0000153
    9   0.0001110  -0.0001157  -0.0673949
   10   1.4080154  -1.5995501  -0.0000708
   11  -0.4016391   1.1702009  -0.0000049
   12  -0.0001724   0.0000931   0.1839914
   13   0.0376401   0.0023104  -0.0000035
   14   0.0169212   0.0543262   0.0000133
   15   0.0000420   0.0000672  -0.0364585
   16  -0.5632336  -0.0000001  -0.0000000
   17   0.0000011  -2.5434158   0.0000000
   18  -0.0000569  -0.0000000  -0.1023852
   19   0.0258910  -0.0000001   0.0000045
   20  -0.0000001  -0.0308474   0.0000000
   21   0.0000808   0.0000000   0.0240662
   22  -1.1409389   0.3600411  -0.0000064
   23   0.6339412  -0.4680797   0.0000394
   24   0.0000014   0.0000677  -0.0885527
   25  -1.4703924  -0.0000005  -0.0000079
   26   0.0000001  -0.6088414   0.0000000
   27   0.0000237  -0.0000000  -0.0343362
   28   1.8090967  -0.8140120   0.0000835
   29  -0.0655769   0.7714543  -0.0000153
   30   0.0001109  -0.0001157   0.0673949
   31  -1.4080146   1.5995487  -0.0000708
   32   0.4016388  -1.1702008  -0.0000049
   33  -0.0001724   0.0000931  -0.1839914
   34  -0.0376402  -0.0023106  -0.0000035
   35  -0.0169212  -0.0543257   0.0000133
   36   0.0000420   0.0000672   0.0364585
   37   0.5632333  -0.0000000  -0.0000000
   38  -0.0000012   2.5434158  -0.0000000
   39  -0.0000570   0.0000000   0.1023852
   40  -0.0258912  -0.0000001   0.0000045
   41   0.0000001   0.0308474  -0.0000000
   42   0.0000808  -0.0000000  -0.0240662
   43   1.1409392   0.3600417  -0.0000064
   44   0.6339421   0.4680798  -0.0000394
   45   0.0000014  -0.0000677   0.0885527
   46  -1.8090973  -0.8140121   0.0000835
   47  -0.0655777  -0.7714543   0.0000153
   48   0.0001110   0.0001156  -0.0673949
   49   1.4080121   1.5995487  -0.0000708
   50   0.4016392   1.1702009   0.0000049
   51  -0.0001725  -0.0000931   0.1839914
   52   0.0376401  -0.0023104  -0.0000035
   53  -0.0169219   0.0543257  -0.0000133
   54   0.0000420  -0.0000672  -0.0364585
   55  -1.1409394  -0.3600414  -0.0000064
   56  -0.6339420  -0.4680803  -0.0000394
   57   0.0000013  -0.0000677  -0.0885527
   58   1.8090972   0.8140133   0.0000835
   59   0.0655782   0.7714542   0.0000153
   60   0.0001110   0.0001157   0.0673949
   61  -1.4080119  -1.5995497  -0.0000708
   62  -0.4016392  -1.1702009   0.0000049
   63  -0.0001724  -0.0000931  -0.1839914
   64  -0.0376401   0.0023102  -0.0000035
   65   0.0169213  -0.0543260  -0.0000133
   66   0.0000420  -0.0000672   0.0364585
   67   0.0063217  -0.0103083  -0.0000010
   68  -0.0009011   0.0068759  -0.0000029
   69  -0.0000056  -0.0000104  -0.0103282
   70  -0.0063220   0.0103087  -0.0000010
   71   0.0009014  -0.0068760  -0.0000029
   72  -0.0000056  -0.0000104   0.0103282
   73   0.0063218   0.0103087  -0.0000010
   74   0.0009008   0.0068760   0.0000029
   75  -0.0000056   0.0000104  -0.0103282
   76  -0.0063214  -0.0103085  -0.0000010
   77  -0.0009005  -0.0068760   0.0000029
   78  -0.0000056   0.0000104   0.0103282
 TDDFT-Hessian time:  CPU 1855.15 s  wall 1859.69 s
 Gradient time:  CPU 4501.30 s  wall 4512.11 s

 Mass-Weighted Hessian Matrix:


     0.064342    0.005298   -0.000002    0.001668    0.001997    0.000000
     0.005298    0.052848   -0.000007    0.000344   -0.004196    0.000003
    -0.000002   -0.000007    0.007750    0.000000   -0.000001    0.000148
     0.001668    0.000344    0.000000    0.054436    0.000000   -0.000002
     0.001997   -0.004196   -0.000001    0.000000    0.056405    0.000000
     0.000000    0.000003    0.000148   -0.000002    0.000000    0.011118
    -0.011391    0.005251   -0.000002   -0.012218   -0.007052   -0.000001
     0.001911   -0.018509    0.000003   -0.005867   -0.018402   -0.000002
     0.000001   -0.000001   -0.005001    0.000001    0.000002   -0.004720
    -0.003382    0.002597    0.000000   -0.003307   -0.001635    0.000002
     0.004492   -0.000408   -0.000000   -0.002178   -0.000190    0.000001
     0.000001   -0.000001    0.000519    0.000000    0.000000    0.000262
     0.000426   -0.000494    0.000000   -0.001587    0.000604    0.000000
     0.000414    0.000281    0.000000    0.000117    0.000234   -0.000000
     0.000000   -0.000000   -0.000726    0.000000   -0.000001    0.001269
    -0.000073   -0.000403   -0.000001    0.000738    0.000000   -0.000000
    -0.002030    0.001925    0.000001   -0.000000    0.000025   -0.000000
     0.000001   -0.000000    0.000300   -0.000000   -0.000000   -0.000132
    -0.000216   -0.000101    0.000000    0.000110    0.000000   -0.000000
     0.000318    0.000230    0.000000    0.000000   -0.000205    0.000000
    -0.000000    0.000000    0.000078   -0.000000    0.000000   -0.000136
    -0.002659    0.000438   -0.000000   -0.000462    0.001806   -0.000000
     0.000438   -0.000116   -0.000003    0.000778   -0.000066    0.000002
     0.000000    0.000003   -0.000242    0.000000   -0.000002   -0.000001
    -0.000462    0.000778   -0.000000   -0.020732   -0.000000    0.000002
     0.001806   -0.000066    0.000002    0.000000   -0.010384   -0.000000
     0.000000   -0.000002   -0.000001   -0.000002    0.000000   -0.004036
     0.000328    0.000110    0.000000   -0.003330   -0.002032    0.000000
    -0.001687   -0.000228   -0.000000   -0.003362    0.001324   -0.000000
    -0.000000    0.000000   -0.000076   -0.000000    0.000000   -0.000261
     0.000020   -0.000399   -0.000000    0.001309   -0.001720   -0.000002
     0.000345    0.000471   -0.000000   -0.000584   -0.000201   -0.000001
     0.000000    0.000000    0.000010    0.000002    0.000000    0.000427
     0.000057    0.000043   -0.000000    0.000064   -0.000606   -0.000000
     0.000077    0.000031    0.000000    0.000148    0.000017    0.000000
    -0.000000   -0.000000    0.000035   -0.000000    0.000000    0.000182
    -0.000418   -0.000021   -0.000001   -0.000532   -0.000000    0.000001
     0.000020   -0.000694   -0.000001   -0.000000   -0.002133    0.000000
     0.000001    0.000001    0.000011   -0.000001    0.000000   -0.000067
     0.000042   -0.000064    0.000000    0.000021   -0.000000    0.000000
    -0.000026   -0.000122    0.000000    0.000000   -0.000064   -0.000000
    -0.000000    0.000000   -0.000136   -0.000000    0.000000   -0.000226
     0.002950   -0.001014    0.000000    0.001668   -0.001997    0.000000
     0.001014   -0.000435    0.000002   -0.000344   -0.004196   -0.000003
     0.000000   -0.000002    0.000262    0.000000    0.000001    0.000148
    -0.001139    0.000162    0.000001   -0.012218    0.007052   -0.000001
    -0.002964    0.000988   -0.000001    0.005867   -0.018402    0.000002
    -0.000000    0.000002    0.000360    0.000001   -0.000002   -0.004720
     0.001182   -0.001191   -0.000000   -0.003307    0.001635    0.000002
     0.001061   -0.000996    0.000001    0.002178   -0.000190   -0.000001
    -0.000000   -0.000001   -0.000076    0.000000   -0.000000    0.000262
     0.000004    0.000046   -0.000000   -0.001587   -0.000604    0.000000
     0.000168   -0.000138   -0.000000   -0.000117    0.000234    0.000000
    -0.000000    0.000000   -0.000077    0.000000    0.000001    0.001269
    -0.036652   -0.001882    0.000002   -0.000462   -0.001806   -0.000000
     0.001882   -0.009012    0.000003   -0.000778   -0.000066   -0.000002
    -0.000002    0.000003   -0.002405    0.000000    0.000002   -0.000001
    -0.002748   -0.002929    0.000001   -0.003330    0.002032    0.000000
    -0.004286    0.000665    0.000000    0.003362    0.001324    0.000000
    -0.000001   -0.000001    0.000698   -0.000000   -0.000000   -0.000261
     0.000224    0.000541    0.000001    0.001309    0.001720   -0.000002
     0.000599   -0.000466    0.000000    0.000584   -0.000201    0.000001
    -0.000001    0.000000    0.000430    0.000002   -0.000000    0.000427
    -0.000006   -0.000103   -0.000000    0.000064    0.000606   -0.000000
     0.000016    0.000084    0.000000   -0.000148    0.000017   -0.000000
     0.000000   -0.000000   -0.000075   -0.000000   -0.000000    0.000182
    -0.037267   -0.034439    0.000003   -0.000575    0.000876   -0.000000
    -0.034808   -0.076462    0.000006    0.001229   -0.000824    0.000000
     0.000004    0.000006   -0.009694   -0.000000   -0.000000    0.001310
    -0.000085   -0.000050   -0.000000   -0.000086    0.000158   -0.000000
     0.000133    0.000067    0.000000    0.000154   -0.000072    0.000000
    -0.000000    0.000000    0.000074   -0.000000    0.000000   -0.000151
     0.000013   -0.000111    0.000000   -0.000575   -0.000876   -0.000000
     0.000003   -0.000158    0.000000   -0.001229   -0.000824   -0.000000
    -0.000000    0.000000   -0.000171   -0.000000    0.000000    0.001310
    -0.003656    0.008776   -0.000001   -0.000086   -0.000158   -0.000000
    -0.000439    0.001059    0.000000   -0.000154   -0.000072   -0.000000
     0.000000    0.000000    0.001417   -0.000000   -0.000000   -0.000151


    -0.011391    0.001911    0.000001   -0.003382    0.004492    0.000001
     0.005251   -0.018509   -0.000001    0.002597   -0.000408   -0.000001
    -0.000002    0.000003   -0.005001    0.000000   -0.000000    0.000519
    -0.012218   -0.005867    0.000001   -0.003307   -0.002178    0.000000
    -0.007052   -0.018402    0.000002   -0.001635   -0.000190    0.000000
    -0.000001   -0.000002   -0.004720    0.000002    0.000001    0.000262
     0.059620    0.000880   -0.000005   -0.026873   -0.003150    0.000007
     0.000880    0.050793   -0.000002   -0.000741   -0.007316   -0.000001
    -0.000005   -0.000002    0.010577   -0.000001    0.000001   -0.004273
    -0.026873   -0.000741   -0.000001    0.055624    0.002004   -0.000005
    -0.003150   -0.007316    0.000001    0.002004    0.059601    0.000004
     0.000007   -0.000001   -0.004273   -0.000005    0.000004    0.008913
    -0.003610   -0.008316   -0.000000   -0.037484   -0.034622   -0.000004
     0.000394    0.000791   -0.000000   -0.034550   -0.076381   -0.000008
     0.000001    0.000002    0.001179   -0.000004   -0.000011   -0.009334
    -0.002580    0.002658    0.000000   -0.015245    0.010734    0.000002
     0.005939   -0.001827    0.000000    0.003333   -0.022674   -0.000002
     0.000000   -0.000001    0.000618    0.000003   -0.000002   -0.004566
     0.000301    0.000836    0.000001   -0.003463   -0.000599    0.000001
     0.000466   -0.001403   -0.000000    0.008334    0.001201   -0.000002
     0.000000   -0.000000    0.001880   -0.000000    0.000001    0.000986
     0.000328   -0.001687    0.000000    0.000020    0.000345   -0.000000
     0.000110   -0.000228   -0.000000   -0.000399    0.000471   -0.000000
    -0.000000    0.000000   -0.000076    0.000000    0.000000    0.000010
    -0.003330   -0.003362    0.000000    0.001308   -0.000584   -0.000002
    -0.002032    0.001324   -0.000000   -0.001720   -0.000201   -0.000000
    -0.000000    0.000000   -0.000261    0.000002    0.000001    0.000427
     0.000190    0.000705   -0.000002   -0.001453    0.000602    0.000000
     0.000705   -0.000439   -0.000001    0.001053    0.000356    0.000000
     0.000002    0.000001    0.000723   -0.000000   -0.000000    0.000070
    -0.001453    0.001053    0.000000    0.002627   -0.002218    0.000001
     0.000601    0.000356    0.000000   -0.002218    0.000323    0.000001
    -0.000000   -0.000000    0.000070   -0.000001   -0.000001    0.000073
    -0.000227    0.000156    0.000000    0.000079   -0.000162    0.000000
    -0.000004   -0.000043   -0.000000   -0.000036    0.000065   -0.000000
    -0.000000   -0.000000   -0.000274    0.000000    0.000000   -0.000054
     0.000476    0.000083   -0.000000   -0.000290    0.000214   -0.000000
    -0.001539    0.001654    0.000001    0.003750   -0.002390   -0.000000
     0.000000   -0.000000    0.000039    0.000000    0.000000    0.000027
    -0.000048   -0.000014   -0.000000    0.000030   -0.000024    0.000000
    -0.000021    0.000111   -0.000000    0.000187   -0.000119    0.000000
     0.000000    0.000000    0.000056   -0.000000    0.000000    0.000002
    -0.001139    0.002964   -0.000000    0.001182   -0.001061   -0.000000
    -0.000162    0.000988   -0.000002    0.001191   -0.000996    0.000001
     0.000001    0.000001    0.000360   -0.000000   -0.000001   -0.000076
     0.003297   -0.001479    0.000001   -0.002880    0.002417   -0.000002
     0.001479   -0.006607    0.000001   -0.001194    0.001762    0.000000
     0.000001   -0.000001    0.000103    0.000001   -0.000001   -0.000432
    -0.002880    0.001194    0.000001    0.005851   -0.002371    0.000000
    -0.002417    0.001762    0.000001    0.002371   -0.006216   -0.000001
    -0.000002   -0.000000   -0.000432    0.000000    0.000001    0.000875
    -0.000083   -0.000201    0.000000   -0.000414   -0.000764    0.000000
    -0.000331    0.000244    0.000000   -0.001007   -0.000916    0.000000
     0.000000   -0.000000   -0.000201   -0.000000    0.000001    0.001592
    -0.002748    0.004287    0.000001    0.000224   -0.000599    0.000001
     0.002929    0.000665   -0.000001   -0.000541   -0.000466    0.000000
    -0.000001    0.000000    0.000698   -0.000001    0.000000    0.000430
     0.000562    0.000481    0.000002    0.000642   -0.000010   -0.000001
    -0.000481   -0.002826    0.000001    0.001812    0.000055    0.000000
    -0.000002    0.000001    0.000060    0.000001   -0.000000   -0.000082
     0.000642   -0.001813   -0.000001   -0.002233    0.001588   -0.000001
     0.000010    0.000055   -0.000000   -0.001588    0.000372    0.000001
     0.000001    0.000000   -0.000082    0.000001    0.000001    0.000009
     0.000041   -0.000100    0.000000   -0.000008    0.000029   -0.000000
     0.000107   -0.000009    0.000000   -0.000116    0.000096   -0.000000
    -0.000000    0.000000    0.000075   -0.000000   -0.000000    0.000012
     0.003116    0.004052   -0.000000    0.000380    0.000453    0.000000
    -0.004285   -0.005515    0.000001   -0.000652    0.000170   -0.000000
     0.000000    0.000001    0.001071   -0.000000   -0.000000   -0.000876
     0.000057   -0.000131    0.000000    0.000057    0.000095   -0.000000
    -0.000086    0.000193   -0.000000    0.000008   -0.000128    0.000000
     0.000000   -0.000000   -0.000234   -0.000000    0.000000    0.000014
     0.000125   -0.000007   -0.000000    0.000088   -0.000114    0.000000
     0.000309    0.000026   -0.000000    0.000029   -0.000083    0.000000
     0.000000   -0.000000    0.000159    0.000000    0.000000    0.000057
    -0.001412   -0.000643    0.000000   -0.000035    0.000434   -0.000000
    -0.000240    0.000628    0.000000   -0.000056   -0.000101    0.000000
     0.000000    0.000000    0.001799    0.000000   -0.000000    0.000060


     0.000426    0.000414    0.000000   -0.000073   -0.002030    0.000001
    -0.000494    0.000281   -0.000000   -0.000403    0.001925   -0.000000
     0.000000    0.000000   -0.000726   -0.000001    0.000001    0.000300
    -0.001587    0.000117    0.000000    0.000738   -0.000000   -0.000000
     0.000604    0.000234   -0.000001    0.000000    0.000025   -0.000000
     0.000000   -0.000000    0.001269   -0.000000   -0.000000   -0.000132
    -0.003610    0.000394    0.000001   -0.002580    0.005939    0.000000
    -0.008316    0.000791    0.000002    0.002658   -0.001827   -0.000001
    -0.000000   -0.000000    0.001179    0.000000    0.000000    0.000618
    -0.037484   -0.034550   -0.000004   -0.015245    0.003333    0.000003
    -0.034622   -0.076381   -0.000011    0.010734   -0.022674   -0.000002
    -0.000004   -0.000008   -0.009334    0.000002   -0.000002   -0.004566
     0.134134    0.128649    0.000012    0.003523    0.004501    0.000000
     0.128649    0.279929    0.000031   -0.004640   -0.005401   -0.000000
     0.000012    0.000031    0.020038   -0.000001    0.000001    0.001388
     0.003523   -0.004640   -0.000001    0.062346    0.000000   -0.000013
     0.004501   -0.005401    0.000001    0.000000    0.052718   -0.000000
     0.000000   -0.000000    0.001388   -0.000013   -0.000000    0.009606
     0.000922    0.000238   -0.000001   -0.097460   -0.000000    0.000023
    -0.000358    0.000993    0.000000   -0.000000   -0.017377   -0.000000
    -0.000000    0.000001   -0.003606    0.000025   -0.000000   -0.010231
     0.000057    0.000077    0.000000   -0.000418    0.000020   -0.000001
     0.000043    0.000031    0.000000   -0.000021   -0.000693   -0.000001
     0.000000   -0.000000    0.000035    0.000001    0.000001    0.000011
     0.000064    0.000148    0.000000   -0.000532    0.000000    0.000001
    -0.000606    0.000017   -0.000000    0.000000   -0.002133   -0.000000
     0.000000   -0.000000    0.000182   -0.000001    0.000000   -0.000067
    -0.000227   -0.000004    0.000000    0.000476   -0.001539   -0.000000
     0.000156   -0.000043    0.000000    0.000083    0.001654    0.000000
    -0.000000    0.000000   -0.000274    0.000000   -0.000001    0.000039
     0.000079   -0.000036   -0.000000   -0.000290    0.003750   -0.000000
    -0.000162    0.000065   -0.000000    0.000214   -0.002390   -0.000000
    -0.000000    0.000000   -0.000054    0.000000    0.000000    0.000027
    -0.000073   -0.000017   -0.000000   -0.000021    0.000079    0.000000
    -0.000017   -0.000019    0.000000   -0.000035   -0.000149   -0.000000
     0.000000   -0.000000    0.000449    0.000000    0.000000   -0.000030
    -0.000021   -0.000035   -0.000000    0.000008   -0.000000    0.000000
     0.000079   -0.000149   -0.000000    0.000000    0.005549   -0.000000
    -0.000000    0.000000   -0.000030   -0.000000    0.000000   -0.000005
    -0.000005   -0.000010    0.000000    0.000011    0.000000   -0.000000
    -0.000007   -0.000025   -0.000000    0.000000    0.000229    0.000000
    -0.000000   -0.000000    0.000003    0.000000    0.000000   -0.000009
     0.000004   -0.000168   -0.000000   -0.000073    0.002030    0.000001
    -0.000046   -0.000138   -0.000000    0.000403    0.001925    0.000000
    -0.000000    0.000000   -0.000077   -0.000001   -0.000001    0.000300
    -0.000083    0.000331    0.000000   -0.002580   -0.005939    0.000000
     0.000201    0.000244    0.000000   -0.002658   -0.001828    0.000001
     0.000000   -0.000000   -0.000201    0.000000   -0.000000    0.000618
    -0.000414    0.001007   -0.000000   -0.015245   -0.003333    0.000003
     0.000764   -0.000916   -0.000001   -0.010734   -0.022674    0.000002
     0.000000   -0.000000    0.001592    0.000002    0.000002   -0.004566
     0.000379   -0.000799   -0.000000    0.003523   -0.004501    0.000000
     0.000799   -0.001071   -0.000000    0.004640   -0.005401    0.000000
    -0.000000    0.000000   -0.000074   -0.000001   -0.000001    0.001388
    -0.000006   -0.000016   -0.000000   -0.000418   -0.000020   -0.000001
     0.000103    0.000084   -0.000000    0.000021   -0.000693    0.000001
     0.000000    0.000000   -0.000075    0.000001   -0.000001    0.000011
     0.000041   -0.000107    0.000000    0.000476    0.001539   -0.000000
     0.000100   -0.000009    0.000000   -0.000083    0.001654   -0.000000
    -0.000000    0.000000    0.000075    0.000000    0.000001    0.000039
    -0.000008    0.000116    0.000000   -0.000290   -0.003750   -0.000000
    -0.000029    0.000096   -0.000000   -0.000214   -0.002390    0.000000
     0.000000   -0.000000    0.000012    0.000000   -0.000000    0.000027
    -0.000028    0.000003    0.000000   -0.000021   -0.000079    0.000000
    -0.000003    0.000010    0.000000    0.000035   -0.000149    0.000000
    -0.000000    0.000000   -0.000033    0.000000   -0.000000   -0.000030
     0.000137   -0.000516   -0.000000    0.000018   -0.000169   -0.000000
     0.001244    0.000351    0.000000    0.000131    0.000062    0.000000
    -0.000000   -0.000000    0.000687   -0.000000    0.000000   -0.000163
     0.000017   -0.000022    0.000000   -0.000171    0.000077    0.000000
    -0.000042   -0.000029   -0.000000   -0.000010    0.000005   -0.000000
     0.000000    0.000000   -0.000114   -0.000000   -0.000000    0.000026
    -0.000024    0.000027   -0.000000    0.000018    0.000169   -0.000000
    -0.000083    0.000030   -0.000000   -0.000131    0.000062   -0.000000
    -0.000000   -0.000000    0.000159   -0.000000   -0.000000   -0.000163
    -0.000040   -0.000046   -0.000000   -0.000171   -0.000077    0.000000
    -0.000006    0.000005   -0.000000    0.000010    0.000005    0.000000
    -0.000000   -0.000000   -0.000123   -0.000000    0.000000    0.000026


    -0.000216    0.000318   -0.000000   -0.002659    0.000438    0.000000
    -0.000101    0.000230    0.000000    0.000438   -0.000116    0.000003
     0.000000    0.000000    0.000078   -0.000000   -0.000003   -0.000242
     0.000110    0.000000   -0.000000   -0.000462    0.000778    0.000000
     0.000000   -0.000205    0.000000    0.001806   -0.000066   -0.000002
    -0.000000    0.000000   -0.000136   -0.000000    0.000002   -0.000001
     0.000301    0.000466    0.000000    0.000328    0.000110   -0.000000
     0.000836   -0.001403   -0.000000   -0.001687   -0.000228    0.000000
     0.000001   -0.000000    0.001880    0.000000   -0.000000   -0.000076
    -0.003463    0.008334   -0.000000    0.000020   -0.000399    0.000000
    -0.000599    0.001201    0.000001    0.000345    0.000471    0.000000
     0.000001   -0.000002    0.000986   -0.000000   -0.000000    0.000010
     0.000922   -0.000358   -0.000000    0.000057    0.000043    0.000000
     0.000238    0.000993    0.000001    0.000077    0.000031   -0.000000
    -0.000001    0.000000   -0.003606    0.000000    0.000000    0.000035
    -0.097460   -0.000000    0.000025   -0.000418   -0.000021    0.000001
    -0.000000   -0.017377   -0.000000    0.000020   -0.000693    0.000001
     0.000023   -0.000000   -0.010231   -0.000001   -0.000001    0.000011
     0.357293   -0.000000   -0.000087    0.000042   -0.000064   -0.000000
    -0.000000    0.059016    0.000000   -0.000026   -0.000122   -0.000000
    -0.000087    0.000000    0.023828    0.000000   -0.000000   -0.000136
     0.000042   -0.000026    0.000000    0.064342    0.005298    0.000002
    -0.000064   -0.000122   -0.000000    0.005298    0.052848    0.000007
    -0.000000   -0.000000   -0.000136    0.000002    0.000007    0.007750
     0.000021   -0.000000    0.000000    0.001668    0.000344   -0.000000
     0.000000   -0.000064   -0.000000    0.001997   -0.004196    0.000001
    -0.000000   -0.000000   -0.000226   -0.000000   -0.000003    0.000148
    -0.000048   -0.000021   -0.000000   -0.011391    0.005251    0.000002
    -0.000014    0.000111   -0.000000    0.001911   -0.018509   -0.000003
     0.000000    0.000000    0.000056   -0.000001    0.000001   -0.005001
     0.000030    0.000187    0.000000   -0.003382    0.002597   -0.000000
    -0.000024   -0.000119   -0.000000    0.004492   -0.000408    0.000000
    -0.000000   -0.000000    0.000002   -0.000001    0.000001    0.000519
    -0.000005   -0.000007    0.000000    0.000426   -0.000494   -0.000000
    -0.000010   -0.000025    0.000000    0.000414    0.000281   -0.000000
    -0.000000    0.000000    0.000003   -0.000000    0.000000   -0.000726
     0.000011   -0.000000   -0.000000   -0.000073   -0.000403    0.000001
     0.000000    0.000229    0.000000   -0.002030    0.001925   -0.000001
     0.000000   -0.000000   -0.000009   -0.000001    0.000000    0.000300
    -0.000021   -0.000000    0.000000   -0.000216   -0.000101   -0.000000
    -0.000000   -0.000028   -0.000000    0.000318    0.000230   -0.000000
    -0.000000   -0.000000    0.000020    0.000000   -0.000000    0.000078
    -0.000216   -0.000318   -0.000000   -0.036652   -0.001882   -0.000002
     0.000101    0.000230   -0.000000    0.001882   -0.009012   -0.000003
     0.000000   -0.000000    0.000078    0.000002   -0.000003   -0.002405
     0.000301   -0.000466    0.000000   -0.002748   -0.002929   -0.000001
    -0.000836   -0.001403    0.000000   -0.004286    0.000665   -0.000000
     0.000001    0.000000    0.001880    0.000001    0.000001    0.000698
    -0.003463   -0.008334   -0.000000    0.000224    0.000541   -0.000001
     0.000599    0.001201   -0.000001    0.000599   -0.000466   -0.000000
     0.000001    0.000002    0.000986    0.000001   -0.000000    0.000430
     0.000922    0.000358   -0.000000   -0.000006   -0.000103    0.000000
    -0.000238    0.000993   -0.000001    0.000016    0.000084   -0.000000
    -0.000001   -0.000000   -0.003606   -0.000000    0.000000   -0.000075
     0.000042    0.000026    0.000000    0.002951   -0.001014   -0.000000
     0.000064   -0.000122    0.000000    0.001014   -0.000435   -0.000002
    -0.000000    0.000000   -0.000136   -0.000000    0.000002    0.000262
    -0.000048    0.000021   -0.000000   -0.001139    0.000162   -0.000001
     0.000014    0.000111    0.000000   -0.002964    0.000988    0.000001
     0.000000   -0.000000    0.000056    0.000000   -0.000002    0.000360
     0.000030   -0.000187    0.000000    0.001182   -0.001191    0.000000
     0.000024   -0.000119    0.000000    0.001061   -0.000996   -0.000001
    -0.000000    0.000000    0.000002    0.000000    0.000001   -0.000076
    -0.000005    0.000007    0.000000    0.000004    0.000046    0.000000
     0.000010   -0.000025   -0.000000    0.000168   -0.000138    0.000000
    -0.000000   -0.000000    0.000003    0.000000   -0.000000   -0.000077
     0.000012   -0.000005   -0.000000   -0.000085   -0.000050    0.000000
     0.000034   -0.000024   -0.000000    0.000133    0.000067   -0.000000
     0.000000   -0.000000    0.000068    0.000000   -0.000000    0.000074
    -0.000087   -0.000132    0.000000   -0.037267   -0.034439   -0.000003
    -0.000007   -0.000035    0.000000   -0.034808   -0.076462   -0.000006
     0.000000    0.000000    0.000012   -0.000004   -0.000006   -0.009694
     0.000012    0.000005   -0.000000   -0.003656    0.008776    0.000001
    -0.000034   -0.000024    0.000000   -0.000439    0.001059   -0.000000
     0.000000    0.000000    0.000068   -0.000000   -0.000000    0.001417
    -0.000087    0.000132    0.000000    0.000013   -0.000111   -0.000000
     0.000007   -0.000035   -0.000000    0.000003   -0.000158   -0.000000
     0.000000   -0.000000    0.000012    0.000000   -0.000000   -0.000171


    -0.000462    0.001806    0.000000    0.000328   -0.001687   -0.000000
     0.000778   -0.000066   -0.000002    0.000110   -0.000228    0.000000
    -0.000000    0.000002   -0.000001    0.000000   -0.000000   -0.000076
    -0.020732    0.000000   -0.000002   -0.003330   -0.003362   -0.000000
    -0.000000   -0.010384    0.000000   -0.002032    0.001324    0.000000
     0.000002   -0.000000   -0.004036    0.000000   -0.000000   -0.000261
    -0.003330   -0.002032   -0.000000    0.000190    0.000705    0.000002
    -0.003362    0.001324    0.000000    0.000705   -0.000439    0.000001
     0.000000   -0.000000   -0.000261   -0.000002   -0.000001    0.000723
     0.001308   -0.001720    0.000002   -0.001453    0.001053   -0.000000
    -0.000584   -0.000201    0.000001    0.000602    0.000356   -0.000000
    -0.000002   -0.000000    0.000427    0.000000    0.000000    0.000070
     0.000064   -0.000606    0.000000   -0.000227    0.000156   -0.000000
     0.000148    0.000017   -0.000000   -0.000004   -0.000043    0.000000
     0.000000   -0.000000    0.000182    0.000000    0.000000   -0.000274
    -0.000532    0.000000   -0.000001    0.000476    0.000083    0.000000
     0.000000   -0.002133    0.000000   -0.001539    0.001654   -0.000001
     0.000001   -0.000000   -0.000067   -0.000000    0.000000    0.000039
     0.000021    0.000000   -0.000000   -0.000048   -0.000014    0.000000
    -0.000000   -0.000064   -0.000000   -0.000021    0.000111    0.000000
     0.000000   -0.000000   -0.000226   -0.000000   -0.000000    0.000056
     0.001668    0.001997   -0.000000   -0.011391    0.001911   -0.000001
     0.000344   -0.004196   -0.000003    0.005251   -0.018509    0.000001
    -0.000000    0.000001    0.000148    0.000002   -0.000003   -0.005001
     0.054436   -0.000000    0.000002   -0.012218   -0.005867   -0.000001
    -0.000000    0.056405   -0.000000   -0.007052   -0.018402   -0.000002
     0.000002   -0.000000    0.011118    0.000001    0.000002   -0.004720
    -0.012218   -0.007052    0.000001    0.059620    0.000880    0.000005
    -0.005867   -0.018402    0.000002    0.000880    0.050793    0.000002
    -0.000001   -0.000002   -0.004720    0.000005    0.000002    0.010577
    -0.003307   -0.001635   -0.000002   -0.026873   -0.000741    0.000001
    -0.002178   -0.000190   -0.000001   -0.003150   -0.007316   -0.000001
    -0.000000   -0.000000    0.000262   -0.000007    0.000001   -0.004273
    -0.001587    0.000604   -0.000000   -0.003610   -0.008316    0.000000
     0.000117    0.000234    0.000000    0.000394    0.000791    0.000000
    -0.000000    0.000001    0.001269   -0.000001   -0.000002    0.001179
     0.000738   -0.000000    0.000000   -0.002580    0.002658   -0.000000
    -0.000000    0.000025    0.000000    0.005939   -0.001828   -0.000000
     0.000000   -0.000000   -0.000132   -0.000000    0.000001    0.000618
     0.000110    0.000000    0.000000    0.000301    0.000836   -0.000001
    -0.000000   -0.000205   -0.000000    0.000466   -0.001403    0.000000
     0.000000   -0.000000   -0.000136   -0.000000    0.000000    0.001880
    -0.000462   -0.001806    0.000000   -0.002748    0.004286   -0.000001
    -0.000778   -0.000066    0.000002    0.002929    0.000665    0.000001
    -0.000000   -0.000002   -0.000001    0.000001   -0.000000    0.000698
    -0.003330    0.002032   -0.000000    0.000562    0.000481   -0.000002
     0.003362    0.001324   -0.000000   -0.000481   -0.002826   -0.000001
     0.000000    0.000000   -0.000261    0.000002   -0.000001    0.000060
     0.001309    0.001720    0.000002    0.000642   -0.001813    0.000001
     0.000584   -0.000201   -0.000001    0.000010    0.000055    0.000000
    -0.000002    0.000000    0.000427   -0.000001   -0.000000   -0.000082
     0.000064    0.000606    0.000000    0.000041   -0.000100   -0.000000
    -0.000148    0.000017    0.000000    0.000107   -0.000009   -0.000000
     0.000000    0.000000    0.000182    0.000000   -0.000000    0.000075
     0.001668   -0.001997   -0.000000   -0.001139    0.002964    0.000000
    -0.000344   -0.004196    0.000003   -0.000162    0.000988    0.000002
    -0.000000   -0.000001    0.000148   -0.000001   -0.000001    0.000360
    -0.012218    0.007052    0.000001    0.003297   -0.001479   -0.000001
     0.005867   -0.018402   -0.000002    0.001479   -0.006607   -0.000001
    -0.000001    0.000002   -0.004720   -0.000001    0.000001    0.000103
    -0.003307    0.001635   -0.000002   -0.002880    0.001194   -0.000001
     0.002179   -0.000190    0.000001   -0.002417    0.001762   -0.000001
    -0.000000    0.000000    0.000262    0.000002    0.000000   -0.000432
    -0.001587   -0.000604   -0.000000   -0.000083   -0.000201   -0.000000
    -0.000117    0.000234   -0.000000   -0.000331    0.000244   -0.000000
    -0.000000   -0.000001    0.001269   -0.000000    0.000000   -0.000201
    -0.000086    0.000158    0.000000    0.000057   -0.000131   -0.000000
     0.000154   -0.000072   -0.000000   -0.000086    0.000193    0.000000
     0.000000   -0.000000   -0.000151   -0.000000    0.000000   -0.000234
    -0.000575    0.000876    0.000000    0.003116    0.004052    0.000000
     0.001229   -0.000824   -0.000000   -0.004285   -0.005515   -0.000001
     0.000000    0.000000    0.001310   -0.000000   -0.000001    0.001071
    -0.000086   -0.000158    0.000000   -0.001412   -0.000643   -0.000000
    -0.000154   -0.000072    0.000000   -0.000240    0.000628   -0.000000
     0.000000    0.000000   -0.000151   -0.000000   -0.000000    0.001799
    -0.000575   -0.000876    0.000000    0.000125   -0.000007    0.000000
    -0.001229   -0.000824    0.000000    0.000309    0.000026    0.000000
     0.000000   -0.000000    0.001310   -0.000000    0.000000    0.000159


     0.000020    0.000345    0.000000    0.000057    0.000077   -0.000000
    -0.000399    0.000471    0.000000    0.000043    0.000031   -0.000000
    -0.000000   -0.000000    0.000010   -0.000000    0.000000    0.000035
     0.001309   -0.000584    0.000002    0.000064    0.000148   -0.000000
    -0.001720   -0.000201    0.000000   -0.000606    0.000017    0.000000
    -0.000002   -0.000001    0.000427   -0.000000    0.000000    0.000182
    -0.001453    0.000601   -0.000000   -0.000227   -0.000004   -0.000000
     0.001053    0.000356   -0.000000    0.000156   -0.000043   -0.000000
     0.000000    0.000000    0.000070    0.000000   -0.000000   -0.000274
     0.002627   -0.002218   -0.000001    0.000079   -0.000036    0.000000
    -0.002218    0.000323   -0.000001   -0.000162    0.000065    0.000000
     0.000001    0.000001    0.000073    0.000000   -0.000000   -0.000054
     0.000079   -0.000162   -0.000000   -0.000073   -0.000017    0.000000
    -0.000036    0.000065    0.000000   -0.000017   -0.000019   -0.000000
    -0.000000   -0.000000   -0.000054   -0.000000    0.000000    0.000449
    -0.000290    0.000214    0.000000   -0.000021   -0.000035    0.000000
     0.003750   -0.002390    0.000000    0.000079   -0.000149    0.000000
    -0.000000   -0.000000    0.000027    0.000000   -0.000000   -0.000030
     0.000030   -0.000024   -0.000000   -0.000005   -0.000010   -0.000000
     0.000187   -0.000119   -0.000000   -0.000007   -0.000025    0.000000
     0.000000   -0.000000    0.000002    0.000000    0.000000    0.000003
    -0.003382    0.004492   -0.000001    0.000426    0.000414   -0.000000
     0.002597   -0.000408    0.000001   -0.000494    0.000281    0.000000
    -0.000000    0.000000    0.000519   -0.000000   -0.000000   -0.000726
    -0.003307   -0.002178   -0.000000   -0.001587    0.000117   -0.000000
    -0.001635   -0.000190   -0.000000    0.000604    0.000234    0.000001
    -0.000002   -0.000001    0.000262   -0.000000    0.000000    0.001269
    -0.026873   -0.003150   -0.000007   -0.003610    0.000394   -0.000001
    -0.000741   -0.007316    0.000001   -0.008316    0.000791   -0.000002
     0.000001   -0.000001   -0.004273    0.000000    0.000000    0.001179
     0.055624    0.002004    0.000005   -0.037484   -0.034550    0.000004
     0.002004    0.059601   -0.000004   -0.034622   -0.076381    0.000011
     0.000005   -0.000004    0.008913    0.000004    0.000008   -0.009334
    -0.037484   -0.034622    0.000004    0.134134    0.128649   -0.000012
    -0.034550   -0.076381    0.000008    0.128649    0.279929   -0.000031
     0.000004    0.000011   -0.009334   -0.000012   -0.000031    0.020038
    -0.015245    0.010734   -0.000002    0.003523   -0.004640    0.000001
     0.003333   -0.022674    0.000002    0.004501   -0.005401   -0.000001
    -0.000003    0.000002   -0.004566   -0.000000    0.000000    0.001388
    -0.003463   -0.000599   -0.000001    0.000922    0.000238    0.000001
     0.008334    0.001201    0.000002   -0.000358    0.000993   -0.000000
     0.000000   -0.000001    0.000986    0.000000   -0.000001   -0.003606
     0.000224   -0.000599   -0.000001   -0.000006   -0.000016    0.000000
    -0.000541   -0.000466   -0.000000    0.000103    0.000084    0.000000
     0.000001   -0.000000    0.000430   -0.000000   -0.000000   -0.000075
     0.000642   -0.000010    0.000001    0.000041   -0.000107   -0.000000
     0.001812    0.000055   -0.000000    0.000100   -0.000009   -0.000000
    -0.000001    0.000000   -0.000082    0.000000   -0.000000    0.000075
    -0.002233    0.001588    0.000001   -0.000008    0.000116   -0.000000
    -0.001588    0.000372   -0.000001   -0.000029    0.000096    0.000000
    -0.000001   -0.000001    0.000009   -0.000000    0.000000    0.000012
    -0.000008    0.000029    0.000000   -0.000028    0.000003   -0.000000
    -0.000116    0.000096    0.000000   -0.000003    0.000010   -0.000000
     0.000000    0.000000    0.000012    0.000000   -0.000000   -0.000033
     0.001182   -0.001061    0.000000    0.000004   -0.000168    0.000000
     0.001191   -0.000996   -0.000001   -0.000046   -0.000138    0.000000
     0.000000    0.000001   -0.000076    0.000000   -0.000000   -0.000077
    -0.002880    0.002417    0.000002   -0.000083    0.000331   -0.000000
    -0.001194    0.001762   -0.000000    0.000201    0.000244   -0.000000
    -0.000001    0.000001   -0.000432   -0.000000    0.000000   -0.000201
     0.005851   -0.002371   -0.000000   -0.000414    0.001007    0.000000
     0.002371   -0.006216    0.000001    0.000764   -0.000916    0.000001
    -0.000000   -0.000001    0.000875   -0.000000    0.000000    0.001592
    -0.000414   -0.000764   -0.000000    0.000379   -0.000799    0.000000
    -0.001007   -0.000916   -0.000000    0.000799   -0.001071    0.000000
     0.000000   -0.000001    0.001592    0.000000   -0.000000   -0.000074
     0.000057    0.000095    0.000000    0.000017   -0.000022   -0.000000
     0.000008   -0.000128   -0.000000   -0.000042   -0.000029    0.000000
     0.000000   -0.000000    0.000014   -0.000000   -0.000000   -0.000114
     0.000380    0.000453   -0.000000    0.000137   -0.000516    0.000000
    -0.000652    0.000170    0.000000    0.001244    0.000351   -0.000000
     0.000000    0.000000   -0.000876    0.000000    0.000000    0.000687
    -0.000035    0.000434    0.000000   -0.000040   -0.000046    0.000000
    -0.000056   -0.000101   -0.000000   -0.000006    0.000005    0.000000
    -0.000000    0.000000    0.000060    0.000000    0.000000   -0.000123
     0.000088   -0.000114   -0.000000   -0.000024    0.000027    0.000000
     0.000029   -0.000083   -0.000000   -0.000083    0.000030    0.000000
    -0.000000   -0.000000    0.000057    0.000000    0.000000    0.000159


    -0.000418    0.000020    0.000001    0.000042   -0.000026   -0.000000
    -0.000021   -0.000694    0.000001   -0.000064   -0.000122    0.000000
    -0.000001   -0.000001    0.000011    0.000000    0.000000   -0.000136
    -0.000532   -0.000000   -0.000001    0.000021    0.000000   -0.000000
    -0.000000   -0.002133    0.000000   -0.000000   -0.000064    0.000000
     0.000001    0.000000   -0.000067    0.000000   -0.000000   -0.000226
     0.000476   -0.001539    0.000000   -0.000048   -0.000021    0.000000
     0.000083    0.001654   -0.000000   -0.000014    0.000111    0.000000
    -0.000000    0.000001    0.000039   -0.000000   -0.000000    0.000056
    -0.000290    0.003750    0.000000    0.000030    0.000187   -0.000000
     0.000214   -0.002390    0.000000   -0.000024   -0.000119    0.000000
    -0.000000   -0.000000    0.000027    0.000000    0.000000    0.000002
    -0.000021    0.000079   -0.000000   -0.000005   -0.000007   -0.000000
    -0.000035   -0.000149    0.000000   -0.000010   -0.000025   -0.000000
    -0.000000   -0.000000   -0.000030    0.000000   -0.000000    0.000003
     0.000008    0.000000   -0.000000    0.000011    0.000000    0.000000
    -0.000000    0.005549    0.000000    0.000000    0.000229    0.000000
     0.000000   -0.000000   -0.000005   -0.000000    0.000000   -0.000009
     0.000011    0.000000    0.000000   -0.000021   -0.000000   -0.000000
    -0.000000    0.000229   -0.000000   -0.000000   -0.000028   -0.000000
    -0.000000    0.000000   -0.000009    0.000000   -0.000000    0.000020
    -0.000073   -0.002030   -0.000001   -0.000216    0.000318    0.000000
    -0.000403    0.001925    0.000000   -0.000101    0.000230   -0.000000
     0.000001   -0.000001    0.000300   -0.000000   -0.000000    0.000078
     0.000738   -0.000000    0.000000    0.000110   -0.000000    0.000000
    -0.000000    0.000025   -0.000000    0.000000   -0.000205   -0.000000
     0.000000    0.000000   -0.000132    0.000000   -0.000000   -0.000136
    -0.002580    0.005939   -0.000000    0.000301    0.000466   -0.000000
     0.002658   -0.001828    0.000001    0.000836   -0.001403    0.000000
    -0.000000   -0.000000    0.000618   -0.000001    0.000000    0.001880
    -0.015245    0.003333   -0.000003   -0.003463    0.008334    0.000000
     0.010734   -0.022674    0.000002   -0.000599    0.001201   -0.000001
    -0.000002    0.000002   -0.004566   -0.000001    0.000002    0.000986
     0.003523    0.004501   -0.000000    0.000922   -0.000358    0.000000
    -0.004640   -0.005401    0.000000    0.000238    0.000993   -0.000001
     0.000001   -0.000001    0.001388    0.000001   -0.000000   -0.003606
     0.062346   -0.000000    0.000013   -0.097460   -0.000000   -0.000025
    -0.000000    0.052718   -0.000000    0.000000   -0.017377    0.000000
     0.000013   -0.000000    0.009606   -0.000023    0.000000   -0.010231
    -0.097460    0.000000   -0.000023    0.357293   -0.000000    0.000087
    -0.000000   -0.017377    0.000000   -0.000000    0.059016   -0.000000
    -0.000025    0.000000   -0.010231    0.000087   -0.000000    0.023828
    -0.000418   -0.000020    0.000001    0.000042    0.000026   -0.000000
     0.000021   -0.000694   -0.000001    0.000064   -0.000122   -0.000000
    -0.000001    0.000001    0.000011    0.000000   -0.000000   -0.000136
     0.000476    0.001539    0.000000   -0.000048    0.000021    0.000000
    -0.000084    0.001654    0.000000    0.000014    0.000111   -0.000000
    -0.000000   -0.000001    0.000039   -0.000000    0.000000    0.000056
    -0.000290   -0.003750    0.000000    0.000030   -0.000187   -0.000000
    -0.000214   -0.002390   -0.000000    0.000024   -0.000119   -0.000000
    -0.000000    0.000000    0.000027    0.000000   -0.000000    0.000002
    -0.000021   -0.000079   -0.000000   -0.000005    0.000007   -0.000000
     0.000035   -0.000149   -0.000000    0.000010   -0.000025    0.000000
    -0.000000    0.000000   -0.000030    0.000000    0.000000    0.000003
    -0.000073    0.002030   -0.000001   -0.000216   -0.000318    0.000000
     0.000403    0.001925   -0.000000    0.000101    0.000230    0.000000
     0.000001    0.000001    0.000300   -0.000000    0.000000    0.000078
    -0.002580   -0.005939   -0.000000    0.000301   -0.000466   -0.000000
    -0.002658   -0.001828   -0.000001   -0.000836   -0.001403   -0.000000
    -0.000000    0.000000    0.000618   -0.000001   -0.000000    0.001880
    -0.015245   -0.003333   -0.000003   -0.003463   -0.008334    0.000000
    -0.010734   -0.022674   -0.000002    0.000599    0.001201    0.000001
    -0.000002   -0.000002   -0.004566   -0.000001   -0.000002    0.000986
     0.003523   -0.004501   -0.000000    0.000922    0.000358    0.000000
     0.004640   -0.005401   -0.000000   -0.000238    0.000993    0.000001
     0.000001    0.000001    0.001388    0.000001    0.000000   -0.003606
    -0.000171    0.000077   -0.000000   -0.000087   -0.000132   -0.000000
    -0.000010    0.000005    0.000000   -0.000007   -0.000035   -0.000000
     0.000000    0.000000    0.000026   -0.000000   -0.000000    0.000012
     0.000018   -0.000169    0.000000    0.000012   -0.000005    0.000000
     0.000131    0.000062   -0.000000    0.000034   -0.000024    0.000000
     0.000000   -0.000000   -0.000163   -0.000000    0.000000    0.000068
    -0.000171   -0.000077   -0.000000   -0.000087    0.000132   -0.000000
     0.000010    0.000005   -0.000000    0.000007   -0.000035    0.000000
     0.000000   -0.000000    0.000026   -0.000000    0.000000    0.000012
     0.000018    0.000169    0.000000    0.000012    0.000005    0.000000
    -0.000131    0.000062    0.000000   -0.000034   -0.000024   -0.000000
     0.000000    0.000000   -0.000163   -0.000000   -0.000000    0.000068


     0.002950    0.001014    0.000000   -0.001139   -0.002964   -0.000000
    -0.001014   -0.000435   -0.000002    0.000162    0.000988    0.000002
     0.000000    0.000002    0.000262    0.000001   -0.000001    0.000360
     0.001668   -0.000344    0.000000   -0.012218    0.005867    0.000001
    -0.001997   -0.004196    0.000001    0.007052   -0.018402   -0.000002
     0.000000   -0.000003    0.000148   -0.000001    0.000002   -0.004720
    -0.001139   -0.000162    0.000001    0.003297    0.001479    0.000001
     0.002964    0.000988    0.000001   -0.001479   -0.006607   -0.000001
    -0.000000   -0.000002    0.000360    0.000001    0.000001    0.000103
     0.001182    0.001191   -0.000000   -0.002880   -0.001194    0.000001
    -0.001061   -0.000996   -0.000001    0.002417    0.001762   -0.000001
    -0.000000    0.000001   -0.000076   -0.000002    0.000000   -0.000432
     0.000004   -0.000046   -0.000000   -0.000083    0.000201    0.000000
    -0.000168   -0.000138    0.000000    0.000331    0.000244   -0.000000
    -0.000000   -0.000000   -0.000077    0.000000    0.000000   -0.000201
    -0.000073    0.000403   -0.000001   -0.002580   -0.002658    0.000000
     0.002030    0.001925   -0.000001   -0.005939   -0.001828   -0.000000
     0.000001    0.000000    0.000300    0.000000    0.000001    0.000618
    -0.000216    0.000101    0.000000    0.000301   -0.000836    0.000001
    -0.000318    0.000230   -0.000000   -0.000466   -0.001403    0.000000
    -0.000000   -0.000000    0.000078    0.000000    0.000000    0.001880
    -0.036652    0.001882    0.000002   -0.002748   -0.004286    0.000001
    -0.001882   -0.009012   -0.000003   -0.002929    0.000665    0.000001
    -0.000002   -0.000003   -0.002405   -0.000001   -0.000000    0.000698
    -0.000462   -0.000778   -0.000000   -0.003330    0.003362    0.000000
    -0.001806   -0.000066   -0.000002    0.002032    0.001324    0.000000
     0.000000    0.000002   -0.000001   -0.000000   -0.000000   -0.000261
    -0.002748    0.002929    0.000001    0.000562   -0.000481    0.000002
     0.004286    0.000665   -0.000000    0.000481   -0.002826   -0.000001
    -0.000001    0.000001    0.000698   -0.000002   -0.000001    0.000060
     0.000224   -0.000541    0.000001    0.000642    0.001812   -0.000001
    -0.000599   -0.000466   -0.000000   -0.000010    0.000055    0.000000
    -0.000001   -0.000000    0.000430    0.000001   -0.000000   -0.000082
    -0.000006    0.000103   -0.000000    0.000041    0.000100    0.000000
    -0.000016    0.000084   -0.000000   -0.000107   -0.000009   -0.000000
     0.000000    0.000000   -0.000075   -0.000000   -0.000000    0.000075
    -0.000418    0.000021   -0.000001    0.000476   -0.000084   -0.000000
    -0.000020   -0.000694    0.000001    0.001539    0.001654   -0.000001
     0.000001   -0.000001    0.000011    0.000000    0.000000    0.000039
     0.000042    0.000064    0.000000   -0.000048    0.000014   -0.000000
[...]
 TransDip   0.000 -0.000 -0.000    0.175  0.000 -0.000    0.214 -0.000  0.000

 Mode:                55                     56                     57
 Frequency:      1493.12                1521.80                1536.58
 Force Cnst:      3.4877                 6.9881                 4.9463
 Red. Mass:       2.6552                 5.1214                 3.5557
 IR Active:          YES                    YES                    NO 
 IR Intens:        1.155                 24.336                  0.000
 Raman Active:       YES                    YES                    YES
               X      Y      Z        X      Y      Z        X      Y      Z
 C          0.052  0.007 -0.000    0.129 -0.006 -0.000    0.049 -0.062  0.000
 C         -0.000 -0.010  0.000    0.000  0.060 -0.000   -0.000 -0.163 -0.000
 C          0.112 -0.017 -0.000   -0.088 -0.035  0.000   -0.069  0.109 -0.000
 C         -0.139  0.016  0.000    0.098 -0.124 -0.000    0.042  0.049 -0.000
 H          0.235 -0.214 -0.000   -0.029 -0.061  0.000   -0.168  0.187  0.000
 C          0.000  0.065  0.000   -0.000  0.286 -0.000   -0.000 -0.187 -0.000
 H          0.000 -0.469  0.000   -0.000 -0.416 -0.000   -0.000  0.438  0.000
 C          0.052  0.007  0.000    0.129 -0.006  0.000   -0.049  0.062  0.000
 C          0.000 -0.010 -0.000   -0.000  0.060  0.000   -0.000  0.163 -0.000
 C          0.112 -0.017  0.000   -0.088 -0.035 -0.000    0.069 -0.109 -0.000
 C         -0.139  0.016 -0.000    0.098 -0.124  0.000   -0.042 -0.049 -0.000
 H          0.235 -0.214  0.000   -0.029 -0.061 -0.000    0.168 -0.187  0.000
 C          0.000  0.065 -0.000   -0.000  0.286 -0.000   -0.000  0.187 -0.000
 H          0.000 -0.469  0.000   -0.000 -0.416 -0.000   -0.000 -0.438  0.000
 C         -0.052  0.007  0.000   -0.129 -0.006  0.000   -0.049 -0.062 -0.000
 C         -0.112 -0.017  0.000    0.088 -0.035 -0.000    0.069  0.109  0.000
 C          0.139  0.016 -0.000   -0.098 -0.124  0.000   -0.042  0.049  0.000
 H         -0.235 -0.214  0.000    0.029 -0.061 -0.000    0.168  0.187 -0.000
 C         -0.052  0.007 -0.000   -0.129 -0.006 -0.000    0.049  0.062 -0.000
 C         -0.112 -0.017 -0.000    0.088 -0.035  0.000   -0.069 -0.109  0.000
 C          0.139  0.016  0.000   -0.098 -0.124 -0.000    0.042 -0.049  0.000
 H         -0.235 -0.214 -0.000    0.029 -0.061  0.000   -0.168 -0.187 -0.000
 H          0.009  0.040  0.000   -0.177  0.184  0.000   -0.170  0.065 -0.000
 H          0.009  0.040 -0.000   -0.177  0.184 -0.000    0.170 -0.065 -0.000
 H         -0.009  0.040 -0.000    0.177  0.184 -0.000    0.170  0.065  0.000
 H         -0.009  0.040  0.000    0.177  0.184  0.000   -0.170 -0.065  0.000
 TransDip   0.000 -0.034 -0.000   -0.000 -0.158  0.000   -0.000 -0.000  0.000

 Mode:                58                     59                     60
 Frequency:      1563.80                1605.52                1656.00
 Force Cnst:      8.7079                 6.1497                 9.3647
 Red. Mass:       6.0436                 4.0492                 5.7960
 IR Active:          NO                     YES                    YES
 IR Intens:        0.000                  0.000                 35.115
 Raman Active:       YES                    YES                    YES
               X      Y      Z        X      Y      Z        X      Y      Z
 C         -0.036 -0.005  0.000    0.087  0.005 -0.000    0.041 -0.024  0.000
 C         -0.000 -0.292  0.000    0.006  0.000 -0.000    0.087 -0.001 -0.000
 C          0.158  0.159 -0.000    0.099 -0.045 -0.000   -0.203  0.016  0.000
 C         -0.081 -0.073  0.000   -0.185  0.094  0.000    0.215 -0.088 -0.000
 H         -0.110 -0.067  0.000    0.342 -0.214 -0.000   -0.269  0.196  0.000
 C          0.000  0.129 -0.000    0.118 -0.000 -0.000   -0.118  0.002  0.000
 H          0.000 -0.422  0.000    0.136  0.000  0.000   -0.135 -0.003 -0.000
 C          0.036  0.005  0.000   -0.087 -0.005 -0.000    0.041 -0.024 -0.000
 C          0.000  0.292 -0.000   -0.006 -0.000 -0.000    0.087 -0.001  0.000
 C         -0.158 -0.159 -0.000   -0.099  0.045 -0.000   -0.203  0.016 -0.000
 C          0.081  0.073  0.000    0.185 -0.094  0.000    0.215 -0.088  0.000
 H          0.110  0.067  0.000   -0.342  0.214 -0.000   -0.269  0.196 -0.000
 C         -0.000 -0.129 -0.000   -0.118  0.000 -0.000   -0.118  0.002 -0.000
 H         -0.000  0.422  0.000   -0.136 -0.000  0.000   -0.135 -0.003  0.000
 C          0.036 -0.005 -0.000    0.087 -0.005 -0.000    0.047  0.024  0.000
 C         -0.158  0.159  0.000    0.099  0.045 -0.000   -0.206 -0.014  0.000
 C          0.081 -0.073 -0.000   -0.185 -0.094  0.000    0.214  0.085 -0.000
 H          0.110 -0.067 -0.000    0.342  0.214 -0.000   -0.267 -0.197  0.000
 C         -0.036  0.005 -0.000   -0.087  0.005 -0.000    0.047  0.024 -0.000
 C          0.158 -0.159  0.000   -0.099 -0.045 -0.000   -0.206 -0.014 -0.000
 C         -0.081  0.073 -0.000    0.185  0.094  0.000    0.214  0.085  0.000
 H         -0.110  0.067 -0.000   -0.342 -0.214 -0.000   -0.267 -0.197 -0.000
 H          0.139 -0.102  0.000   -0.032  0.087 -0.000   -0.125  0.071 -0.000
 H         -0.139  0.102  0.000    0.032 -0.087 -0.000   -0.125  0.071  0.000
 H         -0.139 -0.102 -0.000   -0.032 -0.087 -0.000   -0.129 -0.076 -0.000
 H          0.139  0.102 -0.000    0.032  0.087 -0.000   -0.129 -0.076  0.000
 TransDip   0.000  0.000 -0.000   -0.000  0.000 -0.000   -0.190 -0.004  0.000

 Mode:                61                     62                     63
 Frequency:      1656.03                1689.15                3174.07
 Force Cnst:      9.6744                11.6054                 6.4385
 Red. Mass:       5.9874                 6.9036                 1.0847
 IR Active:          YES                    YES                    YES
 IR Intens:       83.053                  0.000                 39.555
 Raman Active:       YES                    YES                    YES
               X      Y      Z        X      Y      Z        X      Y      Z
 C          0.239 -0.025 -0.000   -0.313  0.053  0.000    0.018  0.032 -0.000
 C          0.001  0.116 -0.000   -0.111  0.000 -0.000   -0.000 -0.000  0.000
 C         -0.093 -0.079  0.000    0.152 -0.022 -0.000    0.001 -0.000  0.000
 C         -0.032  0.111 -0.000   -0.061  0.001  0.000   -0.009 -0.015 -0.000
 H          0.110  0.039 -0.000    0.024 -0.057 -0.000    0.102  0.178  0.000
 C         -0.001 -0.203  0.000    0.010  0.000 -0.000    0.013 -0.000 -0.000
 H         -0.002  0.259 -0.000    0.005 -0.000  0.000   -0.156 -0.000  0.000
 C          0.239 -0.025  0.000    0.313 -0.053  0.000    0.018  0.032  0.000
 C          0.001  0.116  0.000    0.111 -0.000 -0.000   -0.000  0.000 -0.000
 C         -0.093 -0.079 -0.000   -0.152  0.022 -0.000    0.001 -0.000 -0.000
 C         -0.032  0.111  0.000    0.061 -0.001  0.000   -0.009 -0.015  0.000
 H          0.110  0.039  0.000   -0.024  0.057 -0.000    0.102  0.178 -0.000
 C         -0.001 -0.203 -0.000   -0.010  0.000 -0.000    0.013 -0.000  0.000
 H         -0.002  0.259  0.000   -0.005 -0.000  0.000   -0.156  0.000 -0.000
 C         -0.238 -0.024  0.000   -0.313 -0.053  0.000    0.018 -0.032 -0.000
 C          0.088 -0.079 -0.000    0.152  0.022 -0.000    0.001  0.000  0.000
 C          0.037  0.114  0.000   -0.061 -0.001  0.000   -0.009  0.015 -0.000
 H         -0.116  0.034  0.000    0.024  0.057 -0.000    0.102 -0.178  0.000
 C         -0.238 -0.024 -0.000    0.313  0.053  0.000    0.018 -0.032  0.000
 C          0.088 -0.079  0.000   -0.152 -0.022 -0.000    0.001  0.000 -0.000
 C          0.037  0.114 -0.000    0.061  0.001  0.000   -0.009  0.015  0.000
 H         -0.116  0.034 -0.000   -0.024 -0.057 -0.000    0.102 -0.178 -0.000
 H         -0.175  0.244 -0.000    0.193 -0.274  0.000   -0.223 -0.380  0.000
 H         -0.175  0.244  0.000   -0.193  0.274  0.000   -0.223 -0.380 -0.000
 H          0.172  0.242  0.000    0.193  0.274  0.000   -0.223  0.380  0.000
 H          0.172  0.242 -0.000   -0.193 -0.274  0.000   -0.223  0.380 -0.000
 TransDip  -0.002  0.292  0.000   -0.000 -0.000 -0.000    0.201 -0.000  0.000

 Mode:                64                     65                     66
 Frequency:      3175.10                3177.95                3178.60
 Force Cnst:      6.4471                 6.4650                 6.4648
 Red. Mass:       1.0854                 1.0865                 1.0860
 IR Active:          NO                     YES                    YES
 IR Intens:        0.000                  0.000                  9.376
 Raman Active:       YES                    YES                    YES
               X      Y      Z        X      Y      Z        X      Y      Z
 C          0.020  0.035 -0.000    0.003  0.004 -0.000    0.010  0.017 -0.000
 C          0.000 -0.000 -0.000    0.000  0.000 -0.000   -0.000 -0.000  0.000
 C          0.001 -0.000 -0.000    0.001 -0.001 -0.000   -0.001  0.000  0.000
 C         -0.005 -0.009 -0.000   -0.019 -0.031 -0.000    0.016  0.027  0.000
 H          0.058  0.102  0.000    0.212  0.362  0.000   -0.187 -0.317 -0.000
 C         -0.000  0.001  0.000    0.031  0.000 -0.000   -0.029 -0.000  0.000
 H          0.000 -0.001 -0.000   -0.372  0.000  0.000    0.343 -0.000 -0.000
 C         -0.020 -0.035 -0.000   -0.003 -0.004 -0.000    0.010  0.017  0.000
 C          0.000  0.000 -0.000   -0.000  0.000 -0.000   -0.000  0.000 -0.000
 C         -0.001  0.000 -0.000   -0.001  0.001 -0.000   -0.001  0.000 -0.000
 C          0.005  0.009 -0.000    0.019  0.031 -0.000    0.016  0.027 -0.000
 H         -0.058 -0.102  0.000   -0.212 -0.362  0.000   -0.187 -0.317  0.000
 C         -0.000 -0.001 -0.000   -0.031 -0.000 -0.000   -0.029 -0.000 -0.000
 H          0.000  0.001  0.000    0.372  0.000  0.000    0.343 -0.000  0.000
 C         -0.020  0.035  0.000    0.003 -0.004 -0.000    0.010 -0.017 -0.000
 C         -0.001 -0.000  0.000    0.001  0.001 -0.000   -0.001 -0.000  0.000
 C          0.005 -0.009  0.000   -0.019  0.031 -0.000    0.016 -0.027  0.000
 H         -0.058  0.102 -0.000    0.212 -0.362  0.000   -0.187  0.317 -0.000
 C          0.020 -0.035  0.000   -0.003  0.004 -0.000    0.010 -0.017  0.000
 C          0.001  0.000  0.000   -0.001 -0.001 -0.000   -0.001 -0.000 -0.000
 C         -0.005  0.009  0.000    0.019 -0.031 -0.000    0.016 -0.027 -0.000
 H          0.058 -0.102 -0.000   -0.212  0.362  0.000   -0.187  0.317  0.000
 H         -0.245 -0.418  0.000   -0.031 -0.050  0.000   -0.116 -0.201  0.000
 H          0.245  0.418  0.000    0.031  0.050  0.000   -0.116 -0.201 -0.000
 H          0.245 -0.418 -0.000   -0.031  0.050  0.000   -0.116  0.201  0.000
 H         -0.245  0.418 -0.000    0.031 -0.050  0.000   -0.116  0.201 -0.000
 TransDip  -0.000  0.000 -0.000    0.000  0.000  0.000    0.098 -0.000 -0.000

 Mode:                67                     68                     69
 Frequency:      3183.16                3185.51                3194.90
 Force Cnst:      6.5039                 6.5187                 6.5898
 Red. Mass:       1.0895                 1.0903                 1.0957
 IR Active:          YES                    NO                     YES
 IR Intens:       69.106                  0.000                 38.651
 Raman Active:       YES                    YES                    YES
               X      Y      Z        X      Y      Z        X      Y      Z
 C          0.005  0.008 -0.000   -0.005 -0.009  0.000   -0.024 -0.036  0.000
 C         -0.000  0.001 -0.000   -0.000  0.001  0.000    0.000  0.000 -0.000
 C          0.002 -0.001 -0.000    0.001 -0.000  0.000   -0.001  0.001  0.000
 C         -0.021 -0.036 -0.000   -0.021 -0.036 -0.000   -0.005 -0.008 -0.000
 H          0.246  0.421  0.000    0.245  0.418  0.000    0.053  0.088  0.000
 C          0.000  0.003 -0.000    0.000  0.003 -0.000    0.000  0.001 -0.000
 H         -0.000 -0.003  0.000   -0.000 -0.003  0.000   -0.000 -0.001  0.000
 C          0.005  0.008  0.000    0.005  0.009  0.000   -0.024 -0.036 -0.000
 C          0.000  0.001  0.000    0.000 -0.001  0.000   -0.000  0.000  0.000
 C          0.002 -0.001  0.000   -0.001  0.000  0.000   -0.001  0.001 -0.000
 C         -0.021 -0.036  0.000    0.021  0.036 -0.000   -0.005 -0.008  0.000
 H          0.246  0.421 -0.000   -0.245 -0.418  0.000    0.053  0.088 -0.000
 C         -0.000  0.003 -0.000   -0.000 -0.003 -0.000    0.000  0.001  0.000
 H          0.000 -0.003  0.000    0.000  0.003  0.000   -0.000 -0.001 -0.000
 C         -0.005  0.008  0.000    0.005 -0.009 -0.000    0.024 -0.036 -0.000
 C         -0.002 -0.001  0.000   -0.001 -0.000 -0.000    0.001  0.001 -0.000
 C          0.021 -0.036  0.000    0.021 -0.036  0.000    0.005 -0.008  0.000
 H         -0.246  0.421 -0.000   -0.245  0.418 -0.000   -0.053  0.088 -0.000
 C         -0.005  0.008 -0.000   -0.005  0.009 -0.000    0.024 -0.036  0.000
 C         -0.002 -0.001 -0.000    0.001  0.000 -0.000    0.001  0.001  0.000
 C          0.021 -0.036 -0.000   -0.021  0.036  0.000    0.005 -0.008 -0.000
 H         -0.246  0.421  0.000    0.245 -0.418 -0.000   -0.053  0.088  0.000
 H         -0.053 -0.087  0.000    0.058  0.103 -0.000    0.248  0.419 -0.000
 H         -0.053 -0.087 -0.000   -0.058 -0.103 -0.000    0.248  0.419  0.000
 H          0.053 -0.087 -0.000   -0.058  0.103  0.000   -0.248  0.419  0.000
 H          0.053 -0.087  0.000    0.058 -0.103  0.000   -0.248  0.419 -0.000
 TransDip  -0.000 -0.266  0.000   -0.000 -0.000 -0.000   -0.000 -0.199 -0.000

 Mode:                70                     71                     72
 Frequency:      3195.57                3203.83                3204.38
 Force Cnst:      6.5964                 6.6291                 6.6312
 Red. Mass:       1.0964                 1.0961                 1.0961
 IR Active:          YES                    YES                    YES
 IR Intens:        0.000                 80.428                  0.000
 Raman Active:       YES                    YES                    YES
               X      Y      Z        X      Y      Z        X      Y      Z
 C         -0.025 -0.036  0.000   -0.001 -0.001  0.000   -0.005 -0.007  0.000
 C          0.000  0.000 -0.000    0.000  0.000 -0.000   -0.000  0.000 -0.000
 C         -0.001  0.001  0.000    0.001 -0.000 -0.000    0.001 -0.000 -0.000
 C         -0.000  0.000  0.000   -0.011 -0.022 -0.000   -0.011 -0.022 -0.000
 H          0.001 -0.003 -0.000    0.131  0.230  0.000    0.133  0.233  0.000
 C          0.014  0.000 -0.000   -0.053  0.000  0.000   -0.051  0.000  0.000
 H         -0.158 -0.000  0.000    0.596 -0.000 -0.000    0.578 -0.000 -0.000
 C          0.025  0.036  0.000   -0.001 -0.001 -0.000    0.005  0.007  0.000
 C         -0.000  0.000 -0.000    0.000 -0.000  0.000    0.000  0.000 -0.000
 C          0.001 -0.001  0.000    0.001 -0.000  0.000   -0.001  0.000 -0.000
 C          0.000 -0.000  0.000   -0.011 -0.022  0.000    0.011  0.022 -0.000
 H         -0.001  0.003 -0.000    0.131  0.230 -0.000   -0.133 -0.233  0.000
 C         -0.014  0.000 -0.000   -0.053  0.000 -0.000    0.051 -0.000  0.000
 H          0.158 -0.000  0.000    0.596 -0.000  0.000   -0.578  0.000 -0.000
 C         -0.025  0.036  0.000   -0.001  0.001  0.000   -0.005  0.007  0.000
 C         -0.001 -0.001  0.000    0.001  0.000 -0.000    0.001  0.000 -0.000
 C         -0.000 -0.000  0.000   -0.011  0.022 -0.000   -0.011  0.022 -0.000
 H          0.001  0.003 -0.000    0.131 -0.230  0.000    0.133 -0.233  0.000
 C          0.025 -0.036  0.000   -0.001  0.001 -0.000    0.005 -0.007  0.000
 C          0.001  0.001  0.000    0.001  0.000  0.000   -0.001 -0.000 -0.000
 C          0.000  0.000  0.000   -0.011  0.022  0.000    0.011 -0.022 -0.000
 H         -0.001 -0.003 -0.000    0.131 -0.230 -0.000   -0.133  0.233  0.000
 H          0.247  0.418 -0.000    0.009  0.016 -0.000    0.048  0.082 -0.000
 H         -0.247 -0.418 -0.000    0.009  0.016  0.000   -0.048 -0.082 -0.000
 H          0.247 -0.418 -0.000    0.009 -0.016 -0.000    0.048 -0.082 -0.000
 H         -0.247  0.418 -0.000    0.009 -0.016  0.000   -0.048  0.082 -0.000
 TransDip  -0.000 -0.000  0.000   -0.287 -0.000 -0.000   -0.000 -0.000  0.000

 STANDARD THERMODYNAMIC QUANTITIES AT   298.15 K  AND     1.00 ATM

   This Molecule has  2 Imaginary Frequencies
   Zero point vibrational energy:      127.442 kcal/mol

   Atom    1 Element C  Has Mass   12.00000
   Atom    2 Element C  Has Mass   12.00000
   Atom    3 Element C  Has Mass   12.00000
   Atom    4 Element C  Has Mass   12.00000
   Atom    5 Element H  Has Mass    1.00783
   Atom    6 Element C  Has Mass   12.00000
   Atom    7 Element H  Has Mass    1.00783
   Atom    8 Element C  Has Mass   12.00000
   Atom    9 Element C  Has Mass   12.00000
   Atom   10 Element C  Has Mass   12.00000
   Atom   11 Element C  Has Mass   12.00000
   Atom   12 Element H  Has Mass    1.00783
   Atom   13 Element C  Has Mass   12.00000
   Atom   14 Element H  Has Mass    1.00783
   Atom   15 Element C  Has Mass   12.00000
   Atom   16 Element C  Has Mass   12.00000
   Atom   17 Element C  Has Mass   12.00000
   Atom   18 Element H  Has Mass    1.00783
   Atom   19 Element C  Has Mass   12.00000
   Atom   20 Element C  Has Mass   12.00000
   Atom   21 Element C  Has Mass   12.00000
   Atom   22 Element H  Has Mass    1.00783
   Atom   23 Element H  Has Mass    1.00783
   Atom   24 Element H  Has Mass    1.00783
   Atom   25 Element H  Has Mass    1.00783
   Atom   26 Element H  Has Mass    1.00783
   Molecular Mass:   202.078300 amu
   Principal axes and moments of inertia in amu*Bohr^2:
                             1           2           3
    Eigenvalues --     1779.07640  3232.37507  5011.45145
          X               1.00000    -0.00000    -0.00000
          Y               0.00000     1.00000     0.00000
          Z               0.00000    -0.00000     1.00000
   Rotational Symmetry Number is   2
   The Molecule is an Asymmetric Top
   Translational Enthalpy:        0.889 kcal/mol
   Rotational Enthalpy:           0.889 kcal/mol
   Vibrational Enthalpy:        131.767 kcal/mol
   gas constant (RT):             0.592 kcal/mol
   Translational Entropy:        41.815  cal/mol.K
   Rotational Entropy:           30.355  cal/mol.K
   Vibrational Entropy:          22.478  cal/mol.K

   Total Enthalpy:              134.137 kcal/mol
   Total Entropy:                94.648  cal/mol.K
Archival summary:
1\1\qnode0211\FREQ\ProcedureUnspecified\6-31+G*\1610\ckw3571\ThuNov1012:48:592022ThuNov1012:48:592022\0\\#,FREQ,ProcedureUnspecified,6-31+G*,\\0,1\C\C,1,1.41917\C,2,1.39804,1,119.141\H,3,1.08753,2,119.25,1,-179.989,0\C,3,1.38994,2,120.665,1,0.00123541,0\H,5,1.08677,3,119.765,2,179.989,0\C,5,1.38994,3,120.47,2,-0.00265621,0\H,7,1.08753,5,120.084,3,-179.987,0\C,7,1.39804,5,120.665,3,0.00265621,0\C,1,1.43021,2,120.041,3,-179.993,0\C,10,1.41917,1,120.041,2,179.993,0\C,11,1.39804,10,119.141,1,-179.993,0\H,12,1.08753,11,119.25,10,-179.989,0\C,12,1.38994,11,120.665,10,0.00123541,0\H,14,1.08677,12,119.765,11,179.989,0\C,14,1.38994,12,120.47,11,-0.00265621,0\H,16,1.08753,14,120.084,12,-179.987,0\C,16,1.39804,14,120.665,12,0.00265621,0\C,11,1.44265,10,118.647,1,0,0\H,19,1.08728,11,118.247,10,-179.998,0\C,19,1.35167,11,121.312,10,-0.000818307,0\H,21,1.08728,19,120.441,11,-179.997,0\C,2,1.44265,1,118.647,3,179.994,0\H,23,1.08728,2,118.247,1,-179.998,0\C,23,1.35167,2,121.312,1,-0.000818307,0\H,25,1.08728,23,120.441,2,-179.997,0\\\@

 Total job time:  5060.42s(wall), 5048.28s(cpu) 
 Thu Nov 10 12:48:59 2022

        *************************************************************
        *                                                           *
        *  Thank you very much for using Q-Chem.  Have a nice day.  *
        *                                                           *
        *************************************************************


remove work dirs /tmp/qchem278334.0 -- /tmp/qchem278334.-1
rm -rf /tmp/qchem278334
