
Running Job 1 of 1 pyrene_freq.in
qchem pyrene_freq.in_30381.0 /tmp/qchem30381/ 0
/software/QChem/5.3/exe/qcprog.exe_s pyrene_freq.in_30381.0 /tmp/qchem30381/
                  Welcome to Q-Chem
     A Quantum Leap Into The Future Of Chemistry


 Q-Chem 5.3, Q-Chem, Inc., Pleasanton, CA (2020)

 License issued to: SRG Mark Ratner, Northwestern University

 Yihan Shao,  Zhengting Gan,  E. Epifanovsky,  A. T. B. Gilbert,  M. Wormit,  
 J. Kussmann,  A. W. Lange,  A. Behn,  Jia Deng,  Xintian Feng,  D. Ghosh,  
 M. Goldey,  P. R. Horn,  L. D. Jacobson,  I. Kaliman,  T. Kus,  A. Landau,  
 Jie Liu,  E. I. Proynov,  R. M. Richard,  R. P. Steele,  E. J. Sundstrom,  
 H. L. Woodcock III,  P. M. Zimmerman,  D. Zuev,  B. Alam,  B. Albrecht,  
 A. Aldossary,  E. Alguire,  S. A. Baeppler,  D. Barton,  Z. Benda,  
 Y. A. Bernard,  E. J. Berquist,  K. B. Bravaya,  H. Burton,  K. Carter-Fenk,  
 D. Casanova,  Chun-Min Chang,  Yunqing Chen,  A. Chien,  K. D. Closser,  
 M. P. Coons,  S. Coriani,  S. Dasgupta,  A. L. Dempwolff,  M. Diedenhofen,  
 Hainam Do,  R. G. Edgar,  Po-Tung Fang,  S. Faraji,  S. Fatehi,  
 Qingguo Feng,  J. Fosso-Tande,  J. Gayvert,  Qinghui Ge,  A. Ghysels,  
 G. Gidofalvi,  J. Gomes,  J. Gonthier,  S. Gulania,  A. Gunina,  D. Hait,  
 M. W. D. Hanson-Heine,  S. Hammes-Schiffer,  P. H. P. Harbach,  
 A. W. Hauser,  M. F. Herbst,  J. E. Herr,  E. G. Hohenstein,  Z. C. Holden,  
 S. Houck,  Kerwin Hui,  B. C. Huynh,  M. Ivanov,  T.-C. Jagau,  Hyunjun Ji,  
 B. Kaduk,  K. Khistyaev,  Jaehoon Kim,  P. Klunzinger,  K. Koh,  
 D. Kosenkov,  L. Koulias,  T. Kowalczyk,  C. M. Krauter,  A. Kunitsa,  
 Ka Un Lao,  A. Laurent,  K. V. Lawler,  Joonho Lee,  D. Lefrancois,  
 S. Lehtola,  D. S. Levine,  Yi-Pei Li,  You-Sheng Lin,  Fenglai Liu,  
 Kuan-Yu Liu,  E. Livshits,  M. Loipersberger,  A. Luenser,  P. Manohar,  
 E. Mansoor,  S. F. Manzer,  Shan-Ping Mao,  Yuezhi Mao,  N. Mardirossian,  
 A. V. Marenich,  T. Markovich,  L. A. Martinez-Martinez,  S. A. Maurer,  
 N. J. Mayhall,  S. C. McKenzie,  J.-M. Mewes,  P. Morgante,  A. F. Morrison,  
 J. W. Mullinax,  K. Nanda,  T. S. Nguyen-Beck,  R. Olivares-Amaya,  
 K. J. Oosterbaan,  J. A. Parkhill,  S. K. Paul,  F. Pavosevic,  Zheng Pei,  
 T. M. Perrine,  F. Plasser,  P. Pokhilko,  S. Prager,  A. Prociuk,  
 E. Ramos,  B. Rana,  D. R. Rehn,  F. Rob,  E. Rossomme,  M. Scheurer,  
 M. Schneider,  N. Sergueev,  S. M. Sharada,  S. Sharma,  W. Skomorowski,  
 D. W. Small,  T. Stauch,  C. J. Stein,  T. Stein,  Yu-Chuan Su,  
 S. P. Veccham,  Zhen Tao,  A. J. W. Thom,  A. Tkatchenko,  T. Tsuchimochi,  
 N. M. Tubman,  L. Vogt,  M. L. Vidal,  O. Vydrov,  M. A. Watson,  J. Wenzel,  
 M. de Wergifosse,  T. A. Wesolowski,  A. White,  J. Witte,  A. Yamada,  
 Jun Yang,  K. Yao,  S. Yeganeh,  S. R. Yost,  Zhi-Qiang You,  A. Zech,  
 Igor Ying Zhang,  Xing Zhang,  Yan Zhao,  Ying Zhu,  B. R. Brooks,  
 G. K. L. Chan,  C. J. Cramer,  M. S. Gordon,  W. J. Hehre,  A. Klamt,  
 M. W. Schmidt,  C. D. Sherrill,  D. G. Truhlar,  A. Aspuru-Guzik,  R. Baer,  
 A. T. Bell,  N. A. Besley,  Jeng-Da Chai,  A. E. DePrince, III,  
 R. A. DiStasio Jr.,  A. Dreuw,  B. D. Dunietz,  T. R. Furlani,  
 Chao-Ping Hsu,  Yousung Jung,  Jing Kong,  D. S. Lambrecht,  WanZhen Liang,  
 C. Ochsenfeld,  V. A. Rassolov,  L. V. Slipchenko,  J. E. Subotnik,  
 T. Van Voorhis,  J. M. Herbert,  A. I. Krylov,  P. M. W. Gill,  M. Head-Gordon

 Contributors to earlier versions of Q-Chem not listed above: 
 R. D. Adamson,  B. Austin,  J. Baker,  G. J. O. Beran,  K. Brandhorst,  
 S. T. Brown,  E. F. C. Byrd,  A. K. Chakraborty,  C.-L. Cheng,  
 Siu Hung Chien,  D. M. Chipman,  D. L. Crittenden,  H. Dachsel,  
 R. J. Doerksen,  A. D. Dutoi,  L. Fusti-Molnar,  W. A. Goddard III,  
 A. Golubeva-Zadorozhnaya,  S. R. Gwaltney,  G. Hawkins,  A. Heyden,  
 S. Hirata,  G. Kedziora,  F. J. Keil,  C. Kelley,  Jihan Kim,  R. A. King,  
 R. Z. Khaliullin,  P. P. Korambath,  W. Kurlancheek,  A. M. Lee,  M. S. Lee,  
 S. V. Levchenko,  Ching Yeh Lin,  D. Liotard,  R. C. Lochan,  I. Lotan,  
 P. E. Maslen,  N. Nair,  D. P. O'Neill,  D. Neuhauser,  E. Neuscamman,  
 C. M. Oana,  R. Olson,  B. Peters,  R. Peverati,  P. A. Pieniazek,  
 Y. M. Rhee,  J. Ritchie,  M. A. Rohrdanz,  E. Rosta,  N. J. Russ,  
 H. F. Schaefer III,  N. E. Schultz,  N. Shenvi,  A. C. Simmonett,  A. Sodt,  
 D. Stuck,  K. S. Thanthiriwatte,  V. Vanovschi,  Tao Wang,  A. Warshel,  
 C. F. Williams,  Q. Wu,  X. Xu,  W. Zhang

 Please cite Q-Chem as follows:
 Y. Shao et al., Mol. Phys. 113, 184-215 (2015)
 DOI: 10.1080/00268976.2014.952696

 Q-Chem 5.3.1 for Intel X86 EM64T Linux

 Parts of Q-Chem use Armadillo 9.800.1 (Horizon Scraper).
 http://arma.sourceforge.net/

 Q-Chem begins on Wed Nov 10 09:35:44 2021  

Host: 
0

     Scratch files written to /tmp/qchem30381//
 Aug2920 |scratch|qcdevops|jenkins|workspace|build_RNUM 4082   
Processing $rem in /software/QChem/5.3/config/preferences:
Processing $rem in /home/ckw3571/.qchemrc:

Checking the input file for inconsistencies... 	...done.

--------------------------------------------------------------
User input:
--------------------------------------------------------------
$molecule
0 1
C    0.3106360   23.5093081   10.8550679
C   -2.1504200   23.4700371   10.8549345
C   -0.9218899   22.7595710   10.8550100
C   -0.9438555   21.3616992   10.8551621
H   -0.0034608   20.8154609   10.8550349
C   -2.1504200   20.6716729   10.8552647
H   -2.1504200   19.5849015   10.8555696
C   -4.6114760   24.8609766   10.8550680
C   -2.1504200   24.9002475   10.8549346
C   -3.3789501   25.6107136   10.8550101
C   -3.3569846   27.0085854   10.8551621
H   -4.2973792   27.5548238   10.8550347
C   -2.1504200   27.6986117   10.8552647
H   -2.1504200   28.7853832   10.8555694
C   -4.6114760   23.5093081   10.8550679
C   -3.3789501   22.7595710   10.8550099
C   -3.3569846   21.3616992   10.8551618
H   -4.2973792   20.8154608   10.8550345
C    0.3106360   24.8609765   10.8550679
C   -0.9218899   25.6107136   10.8550101
C   -0.9438555   27.0085854   10.8551620
H   -0.0034608   27.5548238   10.8550346
H    1.2480363   22.9584360   10.8551559
H   -5.5488763   25.4118486   10.8551561
H   -5.5488763   22.9584360   10.8551559
H    1.2480363   25.4118486   10.8551559
$end

$rem
BASIS  =  6-31+G*
GUI  =  2
JOB_TYPE  =  Frequency
METHOD  =  B3LYP
VIBMAN_PRINT = 6
$end

--------------------------------------------------------------
 Atom   8: (  0.6758343067,  2.4610559848, -0.0000268255)
         ->(  0.6758342218,  2.4610560074, -0.0000269217)
 Atom  15: ( -0.6758341933,  2.4610559926, -0.0000269099)
         ->( -0.6758342218,  2.4610560074, -0.0000269217)
 Atom  19: (  0.6758341782, -2.4610560152, -0.0000269373)
         ->(  0.6758342218, -2.4610560074, -0.0000269217)
 Atom   9: (  0.7151051925, -0.0000000155, -0.0001602319)
         ->(  0.7151052075,  0.0000000072, -0.0001603153)
 Atom   2: ( -0.7151052075, -0.0000000072, -0.0001603153)
         ->( -0.7151052075,  0.0000000000, -0.0001603153)
 Atom  10: (  1.4255712996,  1.2285300804, -0.0000847371)
         ->(  1.4255713147,  1.2285301031, -0.0000848100)
 Atom  16: ( -1.4255713004,  1.2285300969, -0.0000849041)
         ->( -1.4255713147,  1.2285301031, -0.0000848100)
 Atom  20: (  1.4255712853, -1.2285301196, -0.0000847430)
         ->(  1.4255713147, -1.2285301031, -0.0000848100)
 Atom  11: (  2.8234430994,  1.2065645723,  0.0000672466)
         ->(  2.8234431145,  1.2065644950,  0.0000673062)
 Atom  17: ( -2.8234431006,  1.2065646050,  0.0000670120)
         ->( -2.8234431145,  1.2065644950,  0.0000673062)
 Atom  21: (  2.8234430855, -1.2065645277,  0.0000671408)
         ->(  2.8234431145, -1.2065644950,  0.0000673062)
 Atom  12: (  3.3696815049,  2.1469591692, -0.0000601575)
         ->(  3.3696814200,  2.1469591918, -0.0000598897)
 Atom  18: ( -3.3696814951,  2.1469592082, -0.0000602794)
         ->( -3.3696814200,  2.1469591918, -0.0000598897)
 Atom  22: (  3.3696814800, -2.1469592308, -0.0000602677)
         ->(  3.3696814200, -2.1469591918, -0.0000598897)
 Atom  13: (  3.5134693925, -0.0000000317,  0.0001698357)
         ->(  3.5134694075, -0.0000000090,  0.0001699171)
 Atom   6: ( -3.5134694075,  0.0000000090,  0.0001699171)
         ->( -3.5134694075,  0.0000000000,  0.0001699171)
 Atom  14: (  4.6002408925, -0.0000000380,  0.0004745232)
         ->(  4.6002408075, -0.0000000153,  0.0004748297)
 Atom   7: ( -4.6002408075,  0.0000000153,  0.0004748297)
         ->( -4.6002408075,  0.0000000000,  0.0004748297)
 Atom  24: (  1.2267063121,  3.3984562816,  0.0000612703)
         ->(  1.2267063272,  3.3984563042,  0.0000610825)
 Atom  25: ( -1.2267062879,  3.3984562958,  0.0000610987)
         ->( -1.2267063272,  3.3984563042,  0.0000610825)
 Atom  26: (  1.2267062728, -3.3984563184,  0.0000610541)
         ->(  1.2267063272, -3.3984563042,  0.0000610825)
 ----------------------------------------------------------------
             Standard Nuclear Orientation (Angstroms)
    I     Atom           X                Y                Z
 ----------------------------------------------------------------
    1      C      -0.6758342218    -2.4610560074    -0.0000269217
    2      C      -0.7151052075     0.0000000000    -0.0001603153
    3      C      -1.4255713147    -1.2285301031    -0.0000848100
    4      C      -2.8234431145    -1.2065644950     0.0000673062
    5      H      -3.3696814200    -2.1469591918    -0.0000598897
    6      C      -3.5134694075     0.0000000000     0.0001699171
    7      H      -4.6002408075     0.0000000000     0.0004748297
    8      C       0.6758342218     2.4610560074    -0.0000269217
    9      C       0.7151052075     0.0000000072    -0.0001603153
   10      C       1.4255713147     1.2285301031    -0.0000848100
   11      C       2.8234431145     1.2065644950     0.0000673062
   12      H       3.3696814200     2.1469591918    -0.0000598897
   13      C       3.5134694075    -0.0000000090     0.0001699171
   14      H       4.6002408075    -0.0000000153     0.0004748297
   15      C      -0.6758342218     2.4610560074    -0.0000269217
   16      C      -1.4255713147     1.2285301031    -0.0000848100
   17      C      -2.8234431145     1.2065644950     0.0000673062
   18      H      -3.3696814200     2.1469591918    -0.0000598897
   19      C       0.6758342218    -2.4610560074    -0.0000269217
   20      C       1.4255713147    -1.2285301031    -0.0000848100
   21      C       2.8234431145    -1.2065644950     0.0000673062
   22      H       3.3696814200    -2.1469591918    -0.0000598897
   23      H      -1.2267063272    -3.3984563042     0.0000610825
   24      H       1.2267063272     3.3984563042     0.0000610825
   25      H      -1.2267063272     3.3984563042     0.0000610825
   26      H       1.2267063272    -3.3984563042     0.0000610825
 ----------------------------------------------------------------
 Molecular Point Group                 C2v   NOp =  4
 Largest Abelian Subgroup              C2v   NOp =  4
 Nuclear Repulsion Energy =         967.95489188 hartrees
 There are       53 alpha and       53 beta electrons
 Requested basis set is 6-31+G(d)
 There are 100 shells and 324 basis functions

 Total QAlloc Memory Limit   8000 MB
 Mega-Array Size       188 MB
 MEM_STATIC part       192 MB
 A cutoff of  1.0D-11 yielded   4245 shell pairs
 There are     47609 function pairs
 Smallest overlap matrix eigenvalue = 1.11E-08

 Q-Chem warning in module stvman/mkSTV.C, line 318:

 Overlap eigenvalue is smaller than square root of threshold
 Use THRESH >= 12 to get rid of this warning

 Linear dependence detected in AO basis
 Tighter screening thresholds may be required for diffuse basis sets
 Use S2THRESH > 14 and THRESH = 14 in case of SCF convergence issues
 Number of orthogonalized atomic orbitals = 317
 Maximum deviation from orthogonality = 2.733E-10
 Guess from superposition of atomic densities
 Warning:  Energy on first SCF cycle will be non-variational
 SAD guess density has 106.000000 electrons

 -----------------------------------------------------------------------
  General SCF calculation program by
  Eric Jon Sundstrom, Paul Horn, Yuezhi Mao, Dmitri Zuev, Alec White,
  David Stuck, Shaama M.S., Shane Yost, Joonho Lee, David Small,
  Daniel Levine, Susi Lehtola, Hugh Burton, Evgeny Epifanovsky,
  Bang C. Huynh
 -----------------------------------------------------------------------
 Exchange:     0.2000 Hartree-Fock + 0.0800 Slater + 0.7200 B88
 Correlation:  0.1900 VWN1RPA + 0.8100 LYP
 Using SG-1 standard quadrature grid
 A restricted SCF calculation will be
 performed using DIIS
 SCF converges when DIIS error is below 1.0e-08
 ---------------------------------------
  Cycle       Energy         DIIS error
 ---------------------------------------
    1    -620.0073089560      4.21e-02  
    2    -615.6133735296      3.44e-03  
    3    -615.6326097508      3.27e-03  
    4    -615.7867891690      3.03e-04  
    5    -615.7874810916      1.95e-04  
    6    -615.7879574681      5.13e-05  
    7    -615.7879853522      2.10e-05  
    8    -615.7879907571      3.95e-06  
    9    -615.7879915800      1.59e-06  
   10    -615.7879916304      1.37e-07  
   11    -615.7879916728      3.48e-08  
   12    -615.7879916346      1.78e-08  
   13    -615.7879916151      4.75e-09  Convergence criterion met
 ---------------------------------------
 SCF time:   CPU 64.71s  wall 65.00s 
 SCF   energy in the final basis set =     -615.7879916151
 Total energy in the final basis set =     -615.7879916151
 
 --------------------------------------------------------------
             Orbital Energies (a.u.) and Symmetries
 --------------------------------------------------------------
 
 Alpha MOs, Restricted
 -- Occupied --                  
-10.206 -10.206 -10.206 -10.206 -10.205 -10.204 -10.200 -10.200
  1 A1    1 B1    1 A2    1 B2    2 A1    2 B1    3 A1    2 B2                 
-10.199 -10.199 -10.199 -10.199 -10.198 -10.198 -10.198 -10.198
  2 A2    3 B1    4 B1    4 A1    3 A2    3 B2    5 A1    5 B1                 
 -0.901  -0.860  -0.838  -0.804  -0.773  -0.756  -0.737  -0.718
  6 A1    6 B1    4 B2    7 A1    4 A2    8 A1    7 B1    5 B2                 
 -0.635  -0.633  -0.630  -0.616  -0.551  -0.532  -0.524  -0.509
  9 A1    5 A2    8 B1    6 B2    9 B1   10 A1    6 A2    7 B2                 
 -0.497  -0.478  -0.448  -0.441  -0.440  -0.423  -0.419  -0.406
 11 A1   10 B1   12 A1    8 B2    7 A2   13 A1   14 A1   11 B1                 
 -0.406  -0.397  -0.373  -0.371  -0.370  -0.349  -0.336  -0.326
  9 B2    8 A2   12 B1   10 B2   13 B1   11 B2   15 A1    9 A2                 
 -0.305  -0.281  -0.263  -0.238  -0.207
 16 A1   10 A2   17 A1   14 B1   12 B2                                         
 -- Virtual --                   
 -0.063  -0.034  -0.017   0.001   0.003   0.012   0.014   0.026
 11 A2   18 A1   15 B1   13 B2   19 A1   16 B1   14 B2   20 A1                 
  0.029   0.045   0.045   0.046   0.047   0.048   0.062   0.066
 12 A2   21 A1   17 B1   15 B2   18 B1   22 A1   13 A2   19 B1                 
  0.072   0.076   0.077   0.083   0.097   0.097   0.108   0.108
 23 A1   14 A2   16 B2   20 B1   17 B2   24 A1   18 B2   21 B1                 
  0.109   0.127   0.127   0.137   0.141   0.141   0.144   0.149
 25 A1   22 B1   26 A1   15 A2   27 A1   19 B2   16 A2   28 A1                 
  0.154   0.162   0.163   0.173   0.181   0.181   0.183   0.184
 17 A2   29 A1   23 B1   24 B1   20 B2   25 B1   30 A1   18 A2                 
  0.186   0.188   0.191   0.194   0.209   0.209   0.210   0.223
 21 B2   31 A1   22 B2   32 A1   26 B1   19 A2   23 B2   27 B1                 
  0.225   0.229   0.235   0.236   0.241   0.247   0.249   0.251
 20 A2   24 B2   21 A2   33 A1   28 B1   29 B1   30 B1   25 B2                 
  0.253   0.254   0.261   0.264   0.264   0.277   0.281   0.284
 34 A1   35 A1   22 A2   31 B1   26 B2   23 A2   36 A1   32 B1                 
  0.293   0.298   0.300   0.301   0.303   0.308   0.308   0.320
 37 A1   27 B2   38 A1   33 B1   24 A2   28 B2   34 B1   39 A1                 
  0.321   0.326   0.333   0.335   0.340   0.344   0.366   0.384
 25 A2   29 B2   35 B1   40 A1   26 A2   36 B1   37 B1   41 A1                 
  0.400   0.422   0.435   0.438   0.449   0.466   0.476   0.501
 30 B2   27 A2   42 A1   31 B2   38 B1   28 A2   39 B1   29 A2                 
  0.536   0.556   0.568   0.602   0.653   0.660   0.661   0.669
 30 A2   40 B1   32 B2   43 A1   44 A1   33 B2   31 A2   45 A1                 
  0.679   0.689   0.692   0.692   0.722   0.724   0.726   0.730
 41 B1   42 B1   34 B2   46 A1   32 A2   47 A1   43 B1   35 B2                 
  0.732   0.739   0.741   0.747   0.753   0.754   0.759   0.773
 36 B2   44 B1   37 B2   33 A2   45 B1   48 A1   49 A1   50 A1                 
  0.779   0.780   0.783   0.797   0.798   0.802   0.802   0.807
 51 A1   34 A2   38 B2   35 A2   39 B2   52 A1   46 B1   47 B1                 
  0.840   0.858   0.869   0.886   0.899   0.902   0.918   0.929
 48 B1   36 A2   53 A1   37 A2   49 B1   54 A1   50 B1   40 B2                 
  0.952   0.957   0.964   0.969   0.976   1.000   1.020   1.030
 51 B1   38 A2   55 A1   41 B2   52 B1   56 A1   39 A2   42 B2                 
  1.055   1.064   1.099   1.111   1.131   1.167   1.176   1.178
 53 B1   40 A2   57 A1   54 B1   58 A1   43 B2   59 A1   44 B2                 
  1.184   1.185   1.208   1.211   1.216   1.217   1.220   1.254
 55 B1   41 A2   56 B1   45 B2   46 B2   60 A1   61 A1   42 A2                 
  1.271   1.283   1.294   1.298   1.312   1.324   1.352   1.379
 43 A2   47 B2   57 B1   44 A2   48 B2   62 A1   58 B1   63 A1                 
  1.388   1.390   1.423   1.461   1.463   1.468   1.470   1.477
 45 A2   59 B1   46 A2   64 A1   49 B2   65 A1   60 B1   50 B2                 
  1.486   1.490   1.490   1.491   1.539   1.554   1.571   1.585
 66 A1   47 A2   48 A2   51 B2   67 A1   61 B1   62 B1   52 B2                 
  1.645   1.734   1.768   1.775   1.792   1.826   1.853   1.862
 49 A2   68 A1   69 A1   63 B1   53 B2   70 A1   54 B2   50 A2                 
  1.879   1.880   1.920   1.932   1.944   1.949   1.949   1.969
 64 B1   55 B2   65 B1   71 A1   51 A2   72 A1   66 B1   56 B2                 
  1.973   1.973   1.983   2.003   2.045   2.051   2.052   2.079
 52 A2   73 A1   67 B1   53 A2   68 B1   57 B2   74 A1   69 B1                 
  2.129   2.147   2.161   2.161   2.217   2.231   2.234   2.244
 54 A2   75 A1   76 A1   58 B2   70 B1   71 B1   59 B2   55 A2                 
  2.274   2.277   2.297   2.297   2.332   2.349   2.372   2.377
 60 B2   72 B1   77 A1   78 A1   56 A2   61 B2   62 B2   79 A1                 
  2.383   2.387   2.393   2.447   2.488   2.500   2.506   2.611
 57 A2   73 B1   80 A1   74 B1   75 B1   58 A2   59 A2   63 B2                 
  2.639   2.657   2.669   2.679   2.704   2.720   2.732   2.753
 81 A1   60 A2   76 B1   64 B2   61 A2   77 B1   65 B2   82 A1                 
  2.764   2.803   2.832   2.849   2.876   2.882   2.931   2.947
 62 A2   78 B1   66 B2   79 B1   83 A1   63 A2   80 B1   84 A1                 
  2.952   3.063   3.073   3.083   3.238   3.358   3.496   3.566
 64 A2   65 A2   67 B2   81 B1   82 B1   85 A1   66 A2   83 B1                 
  4.224   4.246   4.251   4.271   4.326   4.346   4.351   4.356
 86 A1   84 B1   68 B2   87 A1   67 A2   88 A1   85 B1   69 B2                 
  4.417   4.418   4.420   4.464   4.487   4.595   4.679   4.929
 86 B1   89 A1   68 A2   70 B2   87 B1   69 A2   90 A1   88 B1                 
 
 Beta MOs, Restricted
 -- Occupied --                  
-10.206 -10.206 -10.206 -10.206 -10.205 -10.204 -10.200 -10.200
  1 A1    1 B1    1 A2    1 B2    2 A1    2 B1    3 A1    2 B2                 
-10.199 -10.199 -10.199 -10.199 -10.198 -10.198 -10.198 -10.198
  2 A2    3 B1    4 B1    4 A1    3 A2    3 B2    5 A1    5 B1                 
 -0.901  -0.860  -0.838  -0.804  -0.773  -0.756  -0.737  -0.718
  6 A1    6 B1    4 B2    7 A1    4 A2    8 A1    7 B1    5 B2                 
 -0.635  -0.633  -0.630  -0.616  -0.551  -0.532  -0.524  -0.509
  9 A1    5 A2    8 B1    6 B2    9 B1   10 A1    6 A2    7 B2                 
 -0.497  -0.478  -0.448  -0.441  -0.440  -0.423  -0.419  -0.406
 11 A1   10 B1   12 A1    8 B2    7 A2   13 A1   14 A1   11 B1                 
 -0.406  -0.397  -0.373  -0.371  -0.370  -0.349  -0.336  -0.326
  9 B2    8 A2   12 B1   10 B2   13 B1   11 B2   15 A1    9 A2                 
 -0.305  -0.281  -0.263  -0.238  -0.207
 16 A1   10 A2   17 A1   14 B1   12 B2                                         
 -- Virtual --                   
 -0.063  -0.034  -0.017   0.001   0.003   0.012   0.014   0.026
 11 A2   18 A1   15 B1   13 B2   19 A1   16 B1   14 B2   20 A1                 
  0.029   0.045   0.045   0.046   0.047   0.048   0.062   0.066
 12 A2   21 A1   17 B1   15 B2   18 B1   22 A1   13 A2   19 B1                 
  0.072   0.076   0.077   0.083   0.097   0.097   0.108   0.108
 23 A1   14 A2   16 B2   20 B1   17 B2   24 A1   18 B2   21 B1                 
  0.109   0.127   0.127   0.137   0.141   0.141   0.144   0.149
 25 A1   22 B1   26 A1   15 A2   27 A1   19 B2   16 A2   28 A1                 
  0.154   0.162   0.163   0.173   0.181   0.181   0.183   0.184
 17 A2   29 A1   23 B1   24 B1   20 B2   25 B1   30 A1   18 A2                 
  0.186   0.188   0.191   0.194   0.209   0.209   0.210   0.223
 21 B2   31 A1   22 B2   32 A1   26 B1   19 A2   23 B2   27 B1                 
  0.225   0.229   0.235   0.236   0.241   0.247   0.249   0.251
 20 A2   24 B2   21 A2   33 A1   28 B1   29 B1   30 B1   25 B2                 
  0.253   0.254   0.261   0.264   0.264   0.277   0.281   0.284
 34 A1   35 A1   22 A2   31 B1   26 B2   23 A2   36 A1   32 B1                 
  0.293   0.298   0.300   0.301   0.303   0.308   0.308   0.320
 37 A1   27 B2   38 A1   33 B1   24 A2   28 B2   34 B1   39 A1                 
  0.321   0.326   0.333   0.335   0.340   0.344   0.366   0.384
 25 A2   29 B2   35 B1   40 A1   26 A2   36 B1   37 B1   41 A1                 
  0.400   0.422   0.435   0.438   0.449   0.466   0.476   0.501
 30 B2   27 A2   42 A1   31 B2   38 B1   28 A2   39 B1   29 A2                 
  0.536   0.556   0.568   0.602   0.653   0.660   0.661   0.669
 30 A2   40 B1   32 B2   43 A1   44 A1   33 B2   31 A2   45 A1                 
  0.679   0.689   0.692   0.692   0.722   0.724   0.726   0.730
 41 B1   42 B1   34 B2   46 A1   32 A2   47 A1   43 B1   35 B2                 
  0.732   0.739   0.741   0.747   0.753   0.754   0.759   0.773
 36 B2   44 B1   37 B2   33 A2   45 B1   48 A1   49 A1   50 A1                 
  0.779   0.780   0.783   0.797   0.798   0.802   0.802   0.807
 51 A1   34 A2   38 B2   35 A2   39 B2   52 A1   46 B1   47 B1                 
  0.840   0.858   0.869   0.886   0.899   0.902   0.918   0.929
 48 B1   36 A2   53 A1   37 A2   49 B1   54 A1   50 B1   40 B2                 
  0.952   0.957   0.964   0.969   0.976   1.000   1.020   1.030
 51 B1   38 A2   55 A1   41 B2   52 B1   56 A1   39 A2   42 B2                 
  1.055   1.064   1.099   1.111   1.131   1.167   1.176   1.178
 53 B1   40 A2   57 A1   54 B1   58 A1   43 B2   59 A1   44 B2                 
  1.184   1.185   1.208   1.211   1.216   1.217   1.220   1.254
 55 B1   41 A2   56 B1   45 B2   46 B2   60 A1   61 A1   42 A2                 
  1.271   1.283   1.294   1.298   1.312   1.324   1.352   1.379
 43 A2   47 B2   57 B1   44 A2   48 B2   62 A1   58 B1   63 A1                 
  1.388   1.390   1.423   1.461   1.463   1.468   1.470   1.477
 45 A2   59 B1   46 A2   64 A1   49 B2   65 A1   60 B1   50 B2                 
  1.486   1.490   1.490   1.491   1.539   1.554   1.571   1.585
 66 A1   47 A2   48 A2   51 B2   67 A1   61 B1   62 B1   52 B2                 
  1.645   1.734   1.768   1.775   1.792   1.826   1.853   1.862
 49 A2   68 A1   69 A1   63 B1   53 B2   70 A1   54 B2   50 A2                 
  1.879   1.880   1.920   1.932   1.944   1.949   1.949   1.969
 64 B1   55 B2   65 B1   71 A1   51 A2   72 A1   66 B1   56 B2                 
  1.973   1.973   1.983   2.003   2.045   2.051   2.052   2.079
 52 A2   73 A1   67 B1   53 A2   68 B1   57 B2   74 A1   69 B1                 
  2.129   2.147   2.161   2.161   2.217   2.231   2.234   2.244
 54 A2   75 A1   76 A1   58 B2   70 B1   71 B1   59 B2   55 A2                 
  2.274   2.277   2.297   2.297   2.332   2.349   2.372   2.377
 60 B2   72 B1   77 A1   78 A1   56 A2   61 B2   62 B2   79 A1                 
  2.383   2.387   2.393   2.447   2.488   2.500   2.506   2.611
 57 A2   73 B1   80 A1   74 B1   75 B1   58 A2   59 A2   63 B2                 
  2.639   2.657   2.669   2.679   2.704   2.720   2.732   2.753
 81 A1   60 A2   76 B1   64 B2   61 A2   77 B1   65 B2   82 A1                 
  2.764   2.803   2.832   2.849   2.876   2.882   2.931   2.947
 62 A2   78 B1   66 B2   79 B1   83 A1   63 A2   80 B1   84 A1                 
  2.952   3.063   3.073   3.083   3.238   3.358   3.496   3.566
 64 A2   65 A2   67 B2   81 B1   82 B1   85 A1   66 A2   83 B1                 
  4.224   4.246   4.251   4.271   4.326   4.346   4.351   4.356
 86 A1   84 B1   68 B2   87 A1   67 A2   88 A1   85 B1   69 B2                 
  4.417   4.418   4.420   4.464   4.487   4.595   4.679   4.929
 86 B1   89 A1   68 A2   70 B2   87 B1   69 A2   90 A1   88 B1                 
 --------------------------------------------------------------
 
          Ground-State Mulliken Net Atomic Charges

     Atom                 Charge (a.u.)
  ----------------------------------------
      1 C                    -0.224021
      2 C                    -0.164343
      3 C                     0.233565
      4 C                    -0.038177
      5 H                     0.177592
      6 C                    -0.666962
      7 H                     0.176493
      8 C                    -0.224032
      9 C                    -0.164343
     10 C                     0.233552
     11 C                    -0.038253
     12 H                     0.177593
     13 C                    -0.666962
     14 H                     0.176493
     15 C                    -0.223805
     16 C                     0.233535
     17 C                    -0.038208
     18 H                     0.177592
     19 C                    -0.223794
     20 C                     0.233549
     21 C                    -0.038132
     22 H                     0.177592
     23 H                     0.178369
     24 H                     0.178369
     25 H                     0.178369
     26 H                     0.178369
  ----------------------------------------
  Sum of atomic charges =     0.000000

 -----------------------------------------------------------------
                    Cartesian Multipole Moments
 -----------------------------------------------------------------
    Charge (ESU x 10^10)
                 0.0000
    Dipole Moment (Debye)
         X      -0.0000      Y      -0.0000      Z       0.0002
       Tot       0.0002
    Quadrupole Moments (Debye-Ang)
        XX     -81.3774     XY       0.0000     YY     -81.3581
        XZ       0.0000     YZ       0.0000     ZZ     -99.7592
    Octopole Moments (Debye-Ang^2)
       XXX      -0.0000    XXY       0.0000    XYY      -0.0000
       YYY      -0.0000    XXZ       0.0079    XYZ       0.0000
       YYZ       0.0008    XZZ      -0.0000    YZZ       0.0000
       ZZZ      -0.0001
    Hexadecapole Moments (Debye-Ang^3)
      XXXX   -2388.9066   XXXY       0.0000   XXYY    -621.4688
      XYYY      -0.0000   YYYY   -1384.1177   XXXZ       0.0000
      XXYZ       0.0000   XYYZ      -0.0000   YYYZ      -0.0000
      XXZZ    -513.2906   XYZZ       0.0000   YYZZ    -304.8703
      XZZZ       0.0000   YZZZ       0.0000   ZZZZ    -123.0160
 -----------------------------------------------------------------
 Calculating MO derivatives via CPSCF
    1     0    81    0.0350622  
    2     0    81    0.0072126  
    3     0    81    0.0007554  
    4    25    56    0.0000591  
    5    79     2    0.0000032  
    6    81     0    0.0000001  Converged
 Time for AOints: 182.9 s (CPU) 183.3 s (wall)
 ------------------------------------------------------------------------------
                     AOints        : Timing summary (seconds)
 ------------------------------------------------------------------------------
     job step          cpu (% of tot)      sys (% of tot)     wall (% of tot)
 ------------------------------------------------------------------------------
  AOints            0.1829E+03 (13.2)   0.5000E-05 ( 1.9)   0.1833E+03 (13.2)
 ------------------------------------------------------------------------------
   Grand Totals     0.1389E+04          0.2640E-03          0.1392E+04
 ------------------------------------------------------------------------------
 Polarizability Matrix (a.u.)
            1           2           3
    1-287.1348312   0.0000011  -0.0000000
    2   0.0000011-205.7667726   0.0000000
    3   0.0000000   0.0000000 -87.6055639
 Calculating analytic Hessian of the SCF energy
 
 Direct stationary perturbation theory relativistic correction:
 
 rels  =       0.139467526208
 relv  =      -0.813581997209
 rel2e =       0.447446370051
 E_rel =      -0.226668100950
 
 Hessian of the SCF Energy
            1           2           3           4           5           6
    1   0.8042795   0.0568677  -0.0000125   0.0356356   0.0008580  -0.0000025
    2   0.0568677   0.6498727  -0.0000374  -0.0024851  -0.0393576   0.0000015
    3  -0.0000125  -0.0000374   0.1273311  -0.0000004   0.0000031   0.0033128
    4   0.0356356  -0.0024851  -0.0000004   0.6748510  -0.0000009  -0.0000210
    5   0.0008580  -0.0393576   0.0000031  -0.0000009   0.6935375   0.0000000
    6  -0.0000025   0.0000015   0.0033128  -0.0000210   0.0000000   0.1437859
    7  -0.1319909   0.0673942  -0.0000063  -0.1624920  -0.0608097   0.0000102
    8   0.0455157  -0.2318287   0.0000103  -0.0708479  -0.2486621   0.0000087
    9  -0.0000009   0.0000073  -0.0641618   0.0000093   0.0000074  -0.0625192
   10  -0.0436181   0.0225954   0.0000060  -0.0277901  -0.0513628   0.0000013
   11   0.0443462  -0.0028489  -0.0000046  -0.0285216   0.0248387   0.0000020
   12   0.0000014  -0.0000009   0.0043827   0.0000032   0.0000062   0.0047120
   13   0.0014255  -0.0020229   0.0000001  -0.0053357   0.0020870   0.0000003
   14   0.0016395   0.0007693   0.0000007   0.0006332   0.0012915  -0.0000010
   15  -0.0000007  -0.0000002  -0.0039745   0.0000016  -0.0000002   0.0059568
   16  -0.0035088  -0.0036335   0.0000011   0.0010359  -0.0000002   0.0000011
   17  -0.0182460   0.0126086   0.0000017   0.0000000  -0.0447683   0.0000000
   18   0.0000019   0.0000005   0.0067168  -0.0000010   0.0000000  -0.0046191
   19  -0.0006146  -0.0005584   0.0000002   0.0006290  -0.0000000  -0.0000002
   20   0.0010555   0.0008217   0.0000001   0.0000000  -0.0011222  -0.0000000
   21   0.0000003   0.0000003   0.0004129  -0.0000010  -0.0000000  -0.0002439
   22  -0.0007087   0.0003339   0.0000002  -0.0222860   0.0063371   0.0000006
   23   0.0003325   0.0001380  -0.0000001   0.0120907  -0.0017051  -0.0000014
   24  -0.0000002   0.0000001  -0.0003680   0.0000009  -0.0000005  -0.0014342
   25  -0.0222866   0.0120902  -0.0000009  -0.2666969  -0.0000001   0.0000014
   26   0.0063390  -0.0017053   0.0000005   0.0000002  -0.1176401  -0.0000000
   27  -0.0000006   0.0000014  -0.0014342  -0.0000014  -0.0000000  -0.0531170
   28   0.0069398  -0.0045901  -0.0000002  -0.0247858  -0.0296534   0.0000004
   29   0.0044881  -0.0026184   0.0000002  -0.0403278   0.0073694   0.0000007
   30   0.0000012  -0.0000009  -0.0008194  -0.0000028  -0.0000014  -0.0019086
   31  -0.0090618   0.0046846   0.0000002   0.0046966  -0.0032068  -0.0000009
   32   0.0066682  -0.0039256  -0.0000001  -0.0031887  -0.0054709  -0.0000006
   33  -0.0000009   0.0000002   0.0000867   0.0000016   0.0000001   0.0062971
   34  -0.0001633   0.0001536  -0.0000001   0.0000799  -0.0017665  -0.0000003
   35   0.0000403  -0.0000543   0.0000000   0.0002870  -0.0000533   0.0000002
   36  -0.0000003   0.0000002   0.0001735  -0.0000001  -0.0000003   0.0003765
   37  -0.0014977  -0.0007423   0.0000000  -0.0005621   0.0000002   0.0000003
   38  -0.0147392   0.0071721  -0.0000000   0.0000003  -0.0023096   0.0000000
   39   0.0000003  -0.0000003   0.0003716  -0.0000004  -0.0000000  -0.0008744
   40  -0.0000911  -0.0003286   0.0000002  -0.0000004  -0.0000000   0.0000003
   41  -0.0003382  -0.0003858   0.0000000   0.0000000   0.0002085   0.0000000
   42  -0.0000000  -0.0000002  -0.0005019  -0.0000004  -0.0000000  -0.0009874
   43   0.0018935   0.0006780  -0.0000002   0.0356349  -0.0008559  -0.0000025
   44  -0.0006799  -0.0011667  -0.0000000   0.0024856  -0.0393573  -0.0000015
   45  -0.0000002   0.0000000   0.0002462  -0.0000004  -0.0000031   0.0033128
   46  -0.0082506  -0.0008843   0.0000009  -0.1624911   0.0608091   0.0000102
   47  -0.0019401  -0.0033635  -0.0000003   0.0708485  -0.2486619  -0.0000087
   48   0.0000014  -0.0000000   0.0057883   0.0000093  -0.0000074  -0.0625192
   49   0.0074903  -0.0061716  -0.0000009  -0.0277890   0.0513632   0.0000013
   50   0.0074984  -0.0049467  -0.0000005   0.0285216   0.0248393  -0.0000020
   51  -0.0000004   0.0000007  -0.0006968   0.0000032  -0.0000062   0.0047120
   52   0.0002974  -0.0000265  -0.0000001  -0.0053358  -0.0020870   0.0000003
   53   0.0001091   0.0000206  -0.0000002  -0.0006332   0.0012915   0.0000010
   54  -0.0000006   0.0000002  -0.0011113   0.0000016   0.0000002   0.0059568
   55  -0.4702127  -0.0213356   0.0000020  -0.0222864  -0.0063382   0.0000006
   56   0.0213360  -0.1243732   0.0000068  -0.0120908  -0.0017060   0.0000014
   57  -0.0000020   0.0000068  -0.0528895   0.0000009   0.0000005  -0.0014342
   58  -0.0444768  -0.0236291   0.0000020  -0.0247854   0.0296537   0.0000004
   59  -0.0438622   0.0172854  -0.0000017   0.0403276   0.0073696  -0.0000007
   60   0.0000008  -0.0000015   0.0048867  -0.0000028   0.0000014  -0.0019086
   61   0.0201708  -0.0085209  -0.0000003   0.0046962   0.0032070  -0.0000009
   62   0.0055966  -0.0094447   0.0000007   0.0031881  -0.0054704   0.0000006
   63   0.0000017   0.0000000   0.0041182   0.0000016  -0.0000001   0.0062972
   64   0.0000668  -0.0004174   0.0000000   0.0000799   0.0017665  -0.0000003
   65   0.0004380   0.0000858   0.0000000  -0.0002870  -0.0000533  -0.0000002
   66  -0.0000003   0.0000002  -0.0001108  -0.0000001   0.0000003   0.0003765
   67  -0.1287265  -0.1196931   0.0000117  -0.0018656   0.0026225  -0.0000001
   68  -0.1210468  -0.2663387   0.0000209   0.0042957  -0.0024036   0.0000000
   69   0.0000128   0.0000215  -0.0364194  -0.0000005  -0.0000000   0.0033573
   70  -0.0000334  -0.0000084  -0.0000000  -0.0004855   0.0003442  -0.0000000
   71  -0.0000376   0.0000400  -0.0000000   0.0007004   0.0002005   0.0000000
   72   0.0000000   0.0000000   0.0001144  -0.0000001   0.0000002  -0.0001228
   73  -0.0002021  -0.0001536   0.0000000  -0.0018656  -0.0026225  -0.0000001
   74  -0.0004564  -0.0002269  -0.0000000  -0.0042957  -0.0024036  -0.0000000
   75  -0.0000000  -0.0000000  -0.0000918  -0.0000005   0.0000000   0.0033573
   76  -0.0127547   0.0304038  -0.0000028  -0.0004855  -0.0003442  -0.0000000
   77  -0.0017832   0.0037696   0.0000001  -0.0007004   0.0002005  -0.0000000
   78   0.0000005   0.0000006   0.0046375  -0.0000001  -0.0000002  -0.0001228
            7           8           9          10          11          12
    1  -0.1319909   0.0455157  -0.0000009  -0.0436181   0.0443462   0.0000014
    2   0.0673942  -0.2318287   0.0000073   0.0225954  -0.0028489  -0.0000009
    3  -0.0000063   0.0000103  -0.0641618   0.0000060  -0.0000046   0.0043827
    4  -0.1624920  -0.0708479   0.0000093  -0.0277901  -0.0285216   0.0000032
    5  -0.0608097  -0.2486621   0.0000074  -0.0513628   0.0248387   0.0000062
    6   0.0000102   0.0000087  -0.0625192   0.0000013   0.0000020   0.0047120
    7   0.7155983  -0.0047298  -0.0000367  -0.3282577  -0.0321555   0.0000259
    8  -0.0047298   0.6479637  -0.0000150   0.0069223  -0.1170285  -0.0000036
    9  -0.0000367  -0.0000150   0.1525324   0.0000244   0.0000038  -0.0624798
   10  -0.3282577   0.0069223   0.0000244   0.6894639   0.0137599  -0.0000407
   11  -0.0321555  -0.1170285   0.0000038   0.0137599   0.7383504   0.0000553
   12   0.0000259  -0.0000036  -0.0624798  -0.0000407   0.0000553   0.1276616
   13  -0.0125654  -0.0291208  -0.0000010  -0.1299697  -0.1197998  -0.0000122
   14   0.0007887   0.0025120  -0.0000003  -0.1197600  -0.2652845  -0.0000275
   15   0.0000045   0.0000041   0.0035738  -0.0000154  -0.0000352  -0.0350386
   16  -0.0266582   0.0321758   0.0000027  -0.1850888   0.1297327   0.0000193
   17   0.0743255   0.0124091  -0.0000104   0.0651003  -0.2954976  -0.0000225
   18   0.0000018  -0.0000054   0.0065614   0.0000215  -0.0000248  -0.0589492
   19   0.0009338   0.0029778   0.0000022  -0.0120748  -0.0021612   0.0000029
   20   0.0018249  -0.0049673  -0.0000002   0.0293253   0.0046016  -0.0000058
   21   0.0000007  -0.0000007   0.0070417  -0.0000007   0.0000023   0.0029846
   22   0.0069393   0.0044866  -0.0000012  -0.0090628   0.0066694   0.0000009
   23  -0.0045914  -0.0026190   0.0000009   0.0046842  -0.0039251  -0.0000002
   24   0.0000002  -0.0000002  -0.0008194  -0.0000002   0.0000001   0.0000867
   25  -0.0247849  -0.0403280   0.0000028   0.0046966  -0.0031878  -0.0000016
   26  -0.0296530   0.0073696   0.0000014  -0.0032064  -0.0054709  -0.0000001
   27  -0.0000004  -0.0000007  -0.0019086   0.0000009   0.0000006   0.0062971
   28  -0.0137273   0.0078950   0.0000002   0.0090905  -0.0063191  -0.0000009
   29   0.0078948   0.0123382  -0.0000020  -0.0058848   0.0039406   0.0000009
   30  -0.0000002   0.0000020   0.0069133   0.0000004  -0.0000006   0.0000549
   31   0.0090899  -0.0058846  -0.0000004  -0.0102379   0.0054753   0.0000008
   32  -0.0063186   0.0039415   0.0000006   0.0054762  -0.0030498  -0.0000007
   33   0.0000009  -0.0000009   0.0000549  -0.0000008   0.0000007  -0.0005938
   34  -0.0004118   0.0001236   0.0000000  -0.0000836  -0.0001116   0.0000000
   35  -0.0001387   0.0000389   0.0000000   0.0001115  -0.0000477  -0.0000000
   36  -0.0000001  -0.0000001  -0.0001249  -0.0000001  -0.0000001   0.0000154
   37   0.0006488  -0.0000047  -0.0000002  -0.0000500   0.0004597   0.0000000
   38   0.0126714  -0.0068276  -0.0000005  -0.0126943   0.0064059   0.0000011
   39   0.0000001   0.0000003  -0.0002121   0.0000002  -0.0000001   0.0001394
   40   0.0000235  -0.0000516  -0.0000000  -0.0000204  -0.0000021   0.0000000
   41   0.0003220  -0.0001623   0.0000000  -0.0001798   0.0001501  -0.0000000
   42   0.0000001   0.0000001   0.0001953  -0.0000000   0.0000000   0.0000149
   43  -0.0082514   0.0019401   0.0000014   0.0074917  -0.0074992  -0.0000004
   44   0.0008848  -0.0033626   0.0000000   0.0061714  -0.0049467  -0.0000007
   45   0.0000009   0.0000003   0.0057883  -0.0000009   0.0000005  -0.0006968
   46   0.0554221   0.0079035  -0.0000051  -0.0430694   0.0293763   0.0000032
   47  -0.0079042  -0.0403552   0.0000013   0.0132640  -0.0070240  -0.0000011
   48  -0.0000051  -0.0000013   0.0023954   0.0000046  -0.0000033  -0.0046082
   49  -0.0430681  -0.0132647   0.0000046   0.0596148  -0.0239306  -0.0000008
   50  -0.0293745  -0.0070258   0.0000033   0.0239299  -0.0619820  -0.0000015
   51   0.0000032   0.0000011  -0.0046082  -0.0000008   0.0000015   0.0080829
   52  -0.0008437  -0.0005073   0.0000002  -0.0011033  -0.0030506   0.0000001
   53  -0.0006115   0.0003066   0.0000000  -0.0042983  -0.0027821   0.0000015
   54   0.0000012  -0.0000001  -0.0004338   0.0000002   0.0000013   0.0066256
   55  -0.0444768   0.0438620  -0.0000008   0.0201706  -0.0055959  -0.0000017
   56   0.0236294   0.0172857  -0.0000015   0.0085217  -0.0094441   0.0000000
   57  -0.0000020  -0.0000017   0.0048867   0.0000003   0.0000007   0.0041182
   58   0.0170708  -0.0075289  -0.0000008  -0.0147362   0.0062485   0.0000016
   59   0.0075289  -0.0241024   0.0000003  -0.0068295   0.0017974   0.0000005
   60   0.0000008   0.0000003  -0.0044597  -0.0000007   0.0000004  -0.0003427
   61  -0.0147362   0.0068298   0.0000007   0.0129111  -0.0062880  -0.0000010
   62  -0.0062481   0.0017982   0.0000004   0.0062879  -0.0021546  -0.0000007
   63  -0.0000016   0.0000005  -0.0003427   0.0000010  -0.0000007  -0.0005586
   64   0.0001103   0.0001561   0.0000000   0.0001322  -0.0001823   0.0000000
   65  -0.0001674   0.0001999   0.0000001   0.0001335  -0.0000559  -0.0000000
   66   0.0000002  -0.0000000   0.0001284  -0.0000001   0.0000001  -0.0000399
   67   0.0106435   0.0146802  -0.0000015   0.0013320   0.0010524   0.0000002
   68  -0.0150892  -0.0200206   0.0000022  -0.0020478   0.0013272  -0.0000002
   69   0.0000011   0.0000020   0.0030128  -0.0000002  -0.0000002  -0.0022292
   70   0.0001860  -0.0000044  -0.0000000  -0.0000694   0.0001328   0.0000000
   71  -0.0000754  -0.0000324   0.0000001   0.0000519  -0.0000248  -0.0000000
   72  -0.0000001  -0.0000001  -0.0009387   0.0000002  -0.0000001   0.0001809
   73   0.0005731  -0.0006709   0.0000000   0.0002063  -0.0000860  -0.0000001
   74   0.0014751  -0.0007100  -0.0000001  -0.0000665   0.0001833   0.0000000
   75   0.0000002  -0.0000001   0.0003363   0.0000000   0.0000000  -0.0000510
   76  -0.0049743  -0.0025267   0.0000001   0.0001240   0.0016373  -0.0000001
   77  -0.0008732   0.0015416   0.0000009  -0.0000048  -0.0000282   0.0000000
   78   0.0000007   0.0000002   0.0095881  -0.0000004   0.0000004   0.0002305
           13          14          15          16          17          18
    1   0.0014255   0.0016395  -0.0000007  -0.0035088  -0.0182460   0.0000019
    2  -0.0020229   0.0007693  -0.0000002  -0.0036335   0.0126086   0.0000005
    3   0.0000001   0.0000007  -0.0039745   0.0000011   0.0000017   0.0067168
    4  -0.0053357   0.0006332   0.0000016   0.0010359   0.0000000  -0.0000010
    5   0.0020870   0.0012915  -0.0000002  -0.0000002  -0.0447683   0.0000000
    6   0.0000003  -0.0000010   0.0059568   0.0000011   0.0000000  -0.0046191
    7  -0.0125654   0.0007887   0.0000045  -0.0266582   0.0743255   0.0000018
    8  -0.0291208   0.0025120   0.0000041   0.0321758   0.0124091  -0.0000054
    9  -0.0000010  -0.0000003   0.0035738   0.0000027  -0.0000104   0.0065614
   10  -0.1299697  -0.1197600  -0.0000154  -0.1850888   0.0651003   0.0000215
   11  -0.1197998  -0.2652845  -0.0000352   0.1297327  -0.2954976  -0.0000248
   12  -0.0000122  -0.0000275  -0.0350386   0.0000193  -0.0000225  -0.0589492
   13   0.1350047   0.1295175   0.0000123   0.0120942   0.0153867   0.0000006
   14   0.1295175   0.2821759   0.0000295  -0.0163477  -0.0195608  -0.0000007
   15   0.0000123   0.0000295   0.0239276  -0.0000020   0.0000029   0.0031304
   16   0.0120942  -0.0163477  -0.0000020   0.7476607   0.0000004  -0.0001295
   17   0.0153867  -0.0195608   0.0000029   0.0000004   0.6878424  -0.0000000
   18   0.0000006  -0.0000007   0.0031304  -0.0001295  -0.0000000   0.1285140
   19   0.0009411   0.0002563  -0.0000014  -0.3384498   0.0000000   0.0000795
   20  -0.0003884   0.0009873   0.0000001   0.0000000  -0.0604470   0.0000000
   21  -0.0000001   0.0000006  -0.0039404   0.0000868  -0.0000000  -0.0366485
   22  -0.0001633   0.0000403   0.0000003  -0.0014967  -0.0147384  -0.0000003
   23   0.0001536  -0.0000543  -0.0000002  -0.0007424   0.0071718   0.0000003
   24   0.0000001  -0.0000000   0.0001735  -0.0000000   0.0000000   0.0003716
   25   0.0000799   0.0002870   0.0000001  -0.0005618  -0.0000007   0.0000004
   26  -0.0017665  -0.0000533   0.0000003  -0.0000005  -0.0023101   0.0000000
   27   0.0000003  -0.0000002   0.0003765  -0.0000003  -0.0000000  -0.0008744
   28  -0.0004118  -0.0001387   0.0000001   0.0006490   0.0126703  -0.0000001
   29   0.0001236   0.0000390   0.0000001  -0.0000045  -0.0068275  -0.0000003
   30  -0.0000000  -0.0000000  -0.0001249   0.0000002   0.0000005  -0.0002121
   31  -0.0000836   0.0001115   0.0000001  -0.0000508  -0.0126942  -0.0000002
   32  -0.0001116  -0.0000477   0.0000001   0.0004611   0.0064053   0.0000001
   33  -0.0000000   0.0000000   0.0000154  -0.0000000  -0.0000011   0.0001394
   34  -0.0000673  -0.0000081   0.0000000  -0.0000331  -0.0001004  -0.0000000
   35  -0.0000081  -0.0000106  -0.0000000  -0.0000294   0.0001239  -0.0000000
   36  -0.0000000   0.0000000  -0.0001327  -0.0000000   0.0000000   0.0000210
   37  -0.0000331  -0.0000294   0.0000000  -0.0005836   0.0000004   0.0000001
   38  -0.0001005   0.0001239  -0.0000000  -0.0000001  -0.0139292   0.0000000
   39   0.0000000   0.0000000   0.0000210  -0.0000001   0.0000000   0.0000562
   40  -0.0000038  -0.0000137  -0.0000000   0.0000161   0.0000000  -0.0000000
   41   0.0000060   0.0000042   0.0000000   0.0000000  -0.0002164  -0.0000000
   42  -0.0000000  -0.0000000  -0.0000039   0.0000000  -0.0000000  -0.0000014
   43   0.0002973  -0.0001091  -0.0000006  -0.0035098   0.0182457   0.0000019
   44   0.0000265   0.0000205  -0.0000002   0.0036332   0.0126087  -0.0000005
   45  -0.0000001   0.0000002  -0.0011113   0.0000011  -0.0000017   0.0067168
   46  -0.0008437   0.0006115   0.0000012  -0.0266580  -0.0743253   0.0000018
   47   0.0005073   0.0003066   0.0000001  -0.0321755   0.0124097   0.0000054
   48   0.0000002  -0.0000000  -0.0004338   0.0000027   0.0000104   0.0065614
   49  -0.0011033   0.0042983   0.0000002  -0.1850883  -0.0651002   0.0000215
   50   0.0030506  -0.0027821  -0.0000013  -0.1297329  -0.2954964   0.0000248
   51   0.0000001  -0.0000015   0.0066256   0.0000193   0.0000225  -0.0589492
   52   0.0003844  -0.0008095  -0.0000003   0.0120942  -0.0153867   0.0000006
   53   0.0008095  -0.0010796  -0.0000002   0.0163477  -0.0195608   0.0000007
   54  -0.0000003   0.0000002   0.0002873  -0.0000020  -0.0000029   0.0031304
   55   0.0000668  -0.0004380   0.0000003  -0.0014972   0.0147384  -0.0000003
   56   0.0004174   0.0000858   0.0000002   0.0007424   0.0071722  -0.0000003
   57  -0.0000000   0.0000000  -0.0001108  -0.0000000  -0.0000000   0.0003716
   58   0.0001103   0.0001674  -0.0000002   0.0006494  -0.0126716  -0.0000001
   59  -0.0001561   0.0001999  -0.0000000   0.0000043  -0.0068280   0.0000003
   60  -0.0000000   0.0000001   0.0001284   0.0000002  -0.0000005  -0.0002121
   61   0.0001323  -0.0001335   0.0000001  -0.0000514   0.0126944  -0.0000002
   62   0.0001823  -0.0000559   0.0000001  -0.0004608   0.0064054  -0.0000001
   63  -0.0000000  -0.0000000  -0.0000399  -0.0000000   0.0000011   0.0001394
   64  -0.0000456  -0.0000086   0.0000000  -0.0000331   0.0001004  -0.0000000
   65   0.0000086   0.0000159   0.0000000   0.0000294   0.0001239   0.0000000
   66  -0.0000000   0.0000000   0.0000387  -0.0000000  -0.0000000   0.0000210
   67   0.0001357  -0.0005056  -0.0000002   0.0000790  -0.0003713  -0.0000001
   68   0.0012814   0.0003728   0.0000001   0.0003527  -0.0000164   0.0000001
   69  -0.0000002  -0.0000001   0.0002900  -0.0000001   0.0000000  -0.0001424
   70   0.0000037  -0.0000283  -0.0000000  -0.0005450   0.0000007   0.0000002
   71  -0.0000215  -0.0000137  -0.0000000  -0.0000709   0.0000978   0.0000001
   72   0.0000000  -0.0000000   0.0000951  -0.0000002   0.0000003  -0.0008503
   73  -0.0000162   0.0000325   0.0000000   0.0000790   0.0003713  -0.0000001
   74  -0.0000805   0.0000261   0.0000000  -0.0003528  -0.0000164  -0.0000001
   75  -0.0000000  -0.0000000   0.0000402  -0.0000001  -0.0000000  -0.0001424
   76  -0.0000334  -0.0000535  -0.0000000  -0.0005449  -0.0000007   0.0000002
   77   0.0000187   0.0000119   0.0000000   0.0000708   0.0000978  -0.0000001
   78   0.0000000  -0.0000001   0.0002307  -0.0000002  -0.0000003  -0.0008503
           19          20          21          22          23          24
    1  -0.0006146   0.0010555   0.0000003  -0.0007087   0.0003325  -0.0000002
    2  -0.0005584   0.0008217   0.0000003   0.0003339   0.0001380   0.0000001
    3   0.0000002   0.0000001   0.0004129   0.0000002  -0.0000001  -0.0003680
    4   0.0006290   0.0000000  -0.0000010  -0.0222860   0.0120907   0.0000009
    5  -0.0000000  -0.0011222  -0.0000000   0.0063371  -0.0017051  -0.0000005
    6  -0.0000002  -0.0000000  -0.0002439   0.0000006  -0.0000014  -0.0014342
    7   0.0009338   0.0018249   0.0000007   0.0069393  -0.0045914   0.0000002
    8   0.0029778  -0.0049673  -0.0000007   0.0044866  -0.0026190  -0.0000002
    9   0.0000022  -0.0000002   0.0070417  -0.0000012   0.0000009  -0.0008194
   10  -0.0120748   0.0293253  -0.0000007  -0.0090628   0.0046842  -0.0000002
   11  -0.0021612   0.0046016   0.0000023   0.0066694  -0.0039251   0.0000001
   12   0.0000029  -0.0000058   0.0029846   0.0000009  -0.0000002   0.0000867
   13   0.0009411  -0.0003884  -0.0000001  -0.0001633   0.0001536   0.0000001
   14   0.0002563   0.0009873   0.0000006   0.0000403  -0.0000543  -0.0000000
   15  -0.0000014   0.0000001  -0.0039404   0.0000003  -0.0000002   0.0001735
   16  -0.3384498   0.0000000   0.0000868  -0.0014967  -0.0007424  -0.0000000
   17   0.0000000  -0.0604470  -0.0000000  -0.0147384   0.0071718   0.0000000
   18   0.0000795   0.0000000  -0.0366485  -0.0000003   0.0000003   0.0003716
   19   0.3598027   0.0000000  -0.0000865  -0.0000911  -0.0003286  -0.0000002
   20   0.0000000   0.0595206   0.0000000  -0.0003382  -0.0003858  -0.0000000
   21  -0.0000865   0.0000000   0.0253558   0.0000000   0.0000002  -0.0005019
   22  -0.0000911  -0.0003382   0.0000000   0.8042832   0.0568696   0.0000125
   23  -0.0003286  -0.0003858   0.0000002   0.0568696   0.6498738   0.0000374
   24  -0.0000002  -0.0000000  -0.0005019   0.0000125   0.0000374   0.1273312
   25  -0.0000004  -0.0000000   0.0000004   0.0356346  -0.0024858   0.0000004
   26   0.0000000   0.0002085  -0.0000000   0.0008573  -0.0393571  -0.0000031
   27  -0.0000003   0.0000000  -0.0009874   0.0000025  -0.0000015   0.0033128
   28   0.0000235   0.0003220  -0.0000001  -0.1319917   0.0673957   0.0000063
   29  -0.0000516  -0.0001623  -0.0000001   0.0455168  -0.2318290  -0.0000103
   30   0.0000000  -0.0000000   0.0001953   0.0000009  -0.0000073  -0.0641618
   31  -0.0000204  -0.0001798   0.0000000  -0.0436193   0.0225947  -0.0000060
   32  -0.0000021   0.0001501  -0.0000000   0.0443458  -0.0028489   0.0000046
   33  -0.0000000   0.0000000   0.0000149  -0.0000014   0.0000009   0.0043828
   34  -0.0000038   0.0000060   0.0000000   0.0014255  -0.0020229  -0.0000001
   35  -0.0000137   0.0000042   0.0000000   0.0016395   0.0007693  -0.0000007
   36   0.0000000  -0.0000000  -0.0000039   0.0000007   0.0000002  -0.0039745
   37   0.0000161   0.0000000  -0.0000000  -0.0035092  -0.0036337  -0.0000011
   38  -0.0000000  -0.0002164  -0.0000000  -0.0182466   0.0126089  -0.0000017
   39   0.0000000  -0.0000000  -0.0000014  -0.0000019  -0.0000005   0.0067168
   40  -0.0000190  -0.0000000   0.0000000  -0.0006146  -0.0005583  -0.0000002
   41   0.0000000   0.0000050   0.0000000   0.0010555   0.0008217  -0.0000001
   42  -0.0000000   0.0000000   0.0000131  -0.0000003  -0.0000003   0.0004129
   43  -0.0006146  -0.0010555   0.0000003  -0.4702156  -0.0213367  -0.0000020
   44   0.0005583   0.0008217  -0.0000003   0.0213355  -0.1243745  -0.0000068
   45   0.0000002  -0.0000001   0.0004129   0.0000020  -0.0000068  -0.0528895
   46   0.0009338  -0.0018249   0.0000007  -0.0444752  -0.0236296  -0.0000020
   47  -0.0029778  -0.0049673   0.0000007  -0.0438625   0.0172855   0.0000017
   48   0.0000022   0.0000002   0.0070417  -0.0000008   0.0000015   0.0048867
   49  -0.0120748  -0.0293254  -0.0000007   0.0201699  -0.0085213   0.0000003
   50   0.0021612   0.0046016  -0.0000023   0.0055965  -0.0094443  -0.0000007
   51   0.0000029   0.0000058   0.0029846  -0.0000017  -0.0000000   0.0041182
   52   0.0009411   0.0003884  -0.0000001   0.0000668  -0.0004174  -0.0000000
   53  -0.0002563   0.0009873  -0.0000006   0.0004380   0.0000858  -0.0000000
   54  -0.0000014  -0.0000001  -0.0039404   0.0000003  -0.0000002  -0.0001108
   55  -0.0000911   0.0003382   0.0000000   0.0018931   0.0006800   0.0000002
   56   0.0003286  -0.0003858  -0.0000002  -0.0006808  -0.0011664   0.0000000
   57  -0.0000002   0.0000000  -0.0005019   0.0000002  -0.0000000   0.0002462
   58   0.0000235  -0.0003220  -0.0000001  -0.0082523  -0.0008845  -0.0000009
   59   0.0000516  -0.0001623   0.0000001  -0.0019397  -0.0033640   0.0000003
   60   0.0000000   0.0000000   0.0001953  -0.0000014   0.0000000   0.0057883
   61  -0.0000204   0.0001799   0.0000000   0.0074921  -0.0061708   0.0000009
   62   0.0000021   0.0001501   0.0000000   0.0074993  -0.0049458   0.0000005
   63  -0.0000000  -0.0000000   0.0000149   0.0000004  -0.0000007  -0.0006967
   64  -0.0000038  -0.0000060   0.0000000   0.0002974  -0.0000265   0.0000001
   65   0.0000137   0.0000042  -0.0000000   0.0001091   0.0000206   0.0000002
   66   0.0000000   0.0000000  -0.0000039   0.0000006  -0.0000002  -0.0011113
   67   0.0000116  -0.0000171  -0.0000000  -0.0000334  -0.0000084   0.0000000
   68   0.0000441  -0.0000225  -0.0000000  -0.0000376   0.0000400   0.0000000
   69   0.0000000  -0.0000000   0.0000744  -0.0000000  -0.0000000   0.0001144
   70  -0.0000947  -0.0001509   0.0000000  -0.1287265  -0.1196931  -0.0000117
   71  -0.0000025  -0.0000012   0.0000000  -0.1210468  -0.2663387  -0.0000209
   72  -0.0000000   0.0000000  -0.0000213  -0.0000128  -0.0000215  -0.0364194
   73   0.0000116   0.0000171  -0.0000000  -0.0127546   0.0304038   0.0000028
   74  -0.0000441  -0.0000225   0.0000000  -0.0017832   0.0037696  -0.0000001
   75   0.0000000   0.0000000   0.0000744  -0.0000005  -0.0000006   0.0046375
   76  -0.0000947   0.0001509   0.0000000  -0.0002021  -0.0001536  -0.0000000
   77   0.0000025  -0.0000012  -0.0000000  -0.0004564  -0.0002269   0.0000000
   78  -0.0000000  -0.0000000  -0.0000213   0.0000000   0.0000000  -0.0000918
           25          26          27          28          29          30
    1  -0.0222866   0.0063390  -0.0000006   0.0069398   0.0044881   0.0000012
    2   0.0120902  -0.0017053   0.0000014  -0.0045901  -0.0026184  -0.0000009
    3  -0.0000009   0.0000005  -0.0014342  -0.0000002   0.0000002  -0.0008194
    4  -0.2666969   0.0000002  -0.0000014  -0.0247858  -0.0403278  -0.0000028
    5  -0.0000001  -0.1176401  -0.0000000  -0.0296534   0.0073694  -0.0000014
    6   0.0000014  -0.0000000  -0.0531170   0.0000004   0.0000007  -0.0019086
    7  -0.0247849  -0.0296530  -0.0000004  -0.0137273   0.0078948  -0.0000002
    8  -0.0403280   0.0073696  -0.0000007   0.0078950   0.0123382   0.0000020
    9   0.0000028   0.0000014  -0.0019086   0.0000002  -0.0000020   0.0069133
   10   0.0046966  -0.0032064   0.0000009   0.0090905  -0.0058848   0.0000004
   11  -0.0031878  -0.0054709   0.0000006  -0.0063191   0.0039406  -0.0000006
   12  -0.0000016  -0.0000001   0.0062971  -0.0000009   0.0000009   0.0000549
   13   0.0000799  -0.0017665   0.0000003  -0.0004118   0.0001236  -0.0000000
   14   0.0002870  -0.0000533  -0.0000002  -0.0001387   0.0000390  -0.0000000
   15   0.0000001   0.0000003   0.0003765   0.0000001   0.0000001  -0.0001249
   16  -0.0005618  -0.0000005  -0.0000003   0.0006490  -0.0000045   0.0000002
   17  -0.0000007  -0.0023101  -0.0000000   0.0126703  -0.0068275   0.0000005
   18   0.0000004   0.0000000  -0.0008744  -0.0000001  -0.0000003  -0.0002121
   19  -0.0000004   0.0000000  -0.0000003   0.0000235  -0.0000516   0.0000000
   20  -0.0000000   0.0002085   0.0000000   0.0003220  -0.0001623  -0.0000000
   21   0.0000004  -0.0000000  -0.0009874  -0.0000001  -0.0000001   0.0001953
   22   0.0356346   0.0008573   0.0000025  -0.1319917   0.0455168   0.0000009
   23  -0.0024858  -0.0393571  -0.0000015   0.0673957  -0.2318290  -0.0000073
   24   0.0000004  -0.0000031   0.0033128   0.0000063  -0.0000103  -0.0641618
   25   0.6748505   0.0000006   0.0000210  -0.1624909  -0.0708474  -0.0000093
   26   0.0000006   0.6935354   0.0000000  -0.0608094  -0.2486628  -0.0000074
   27   0.0000210   0.0000000   0.1437860  -0.0000102  -0.0000087  -0.0625192
   28  -0.1624909  -0.0608094  -0.0000102   0.7155999  -0.0047286   0.0000367
   29  -0.0708474  -0.2486628  -0.0000087  -0.0047286   0.6479629   0.0000150
   30  -0.0000093  -0.0000074  -0.0625192   0.0000367   0.0000150   0.1525324
   31  -0.0277904  -0.0513634  -0.0000013  -0.3282594   0.0069206  -0.0000244
   32  -0.0285223   0.0248392  -0.0000020  -0.0321564  -0.1170261  -0.0000038
   33  -0.0000032  -0.0000062   0.0047121  -0.0000259   0.0000036  -0.0624798
   34  -0.0053358   0.0020870  -0.0000003  -0.0125654  -0.0291208   0.0000010
   35   0.0006332   0.0012915   0.0000010   0.0007886   0.0025120   0.0000003
   36  -0.0000016   0.0000002   0.0059568  -0.0000045  -0.0000041   0.0035738
   37   0.0010366   0.0000006  -0.0000011  -0.0266570   0.0321764  -0.0000027
   38  -0.0000000  -0.0447680  -0.0000000   0.0743259   0.0124098   0.0000104
   39   0.0000010   0.0000000  -0.0046191  -0.0000018   0.0000054   0.0065614
   40   0.0006290   0.0000000   0.0000002   0.0009338   0.0029778  -0.0000022
   41   0.0000000  -0.0011222   0.0000000   0.0018249  -0.0049673   0.0000002
   42   0.0000010  -0.0000000  -0.0002439  -0.0000007   0.0000007   0.0070417
   43  -0.0222868  -0.0063391  -0.0000006  -0.0444764   0.0438623   0.0000008
   44  -0.0120899  -0.0017055  -0.0000014   0.0236292   0.0172860   0.0000015
   45  -0.0000009  -0.0000005  -0.0014342   0.0000020   0.0000017   0.0048867
   46  -0.0247849   0.0296535  -0.0000004   0.0170693  -0.0075300   0.0000008
   47   0.0403274   0.0073694   0.0000007   0.0075283  -0.0241027  -0.0000003
   48   0.0000028  -0.0000014  -0.0019086  -0.0000008  -0.0000003  -0.0044597
   49   0.0046958   0.0032065   0.0000009  -0.0147360   0.0068300  -0.0000007
   50   0.0031887  -0.0054709  -0.0000006  -0.0062482   0.0017981  -0.0000004
   51  -0.0000016   0.0000001   0.0062972   0.0000016  -0.0000005  -0.0003427
   52   0.0000799   0.0017665   0.0000003   0.0001103   0.0001561  -0.0000000
   53  -0.0002870  -0.0000533   0.0000002  -0.0001674   0.0001999  -0.0000001
   54   0.0000001  -0.0000003   0.0003765  -0.0000002   0.0000000   0.0001284
   55   0.0356351  -0.0008578   0.0000025  -0.0082539   0.0019396  -0.0000014
   56   0.0024867  -0.0393573   0.0000015   0.0008848  -0.0033628  -0.0000000
   57   0.0000004   0.0000031   0.0033128  -0.0000009  -0.0000003   0.0057883
   58  -0.1624922   0.0608092  -0.0000102   0.0554199   0.0079033   0.0000051
   59   0.0708478  -0.2486625   0.0000087  -0.0079061  -0.0403564  -0.0000013
   60  -0.0000093   0.0000074  -0.0625192   0.0000051   0.0000013   0.0023954
   61  -0.0277885   0.0513629  -0.0000013  -0.0430666  -0.0132651  -0.0000046
   62   0.0285216   0.0248393   0.0000020  -0.0293745  -0.0070258  -0.0000033
   63  -0.0000032   0.0000062   0.0047120  -0.0000032  -0.0000011  -0.0046081
   64  -0.0053358  -0.0020870  -0.0000003  -0.0008437  -0.0005073  -0.0000002
   65  -0.0006332   0.0012915  -0.0000010  -0.0006115   0.0003066  -0.0000000
   66  -0.0000016  -0.0000002   0.0059568  -0.0000012   0.0000001  -0.0004338
   67  -0.0004856   0.0003442   0.0000000   0.0001860  -0.0000044   0.0000000
   68   0.0007004   0.0002005  -0.0000000  -0.0000754  -0.0000324  -0.0000001
   69   0.0000001  -0.0000002  -0.0001228   0.0000001   0.0000001  -0.0009387
   70  -0.0018656   0.0026225   0.0000001   0.0106435   0.0146802   0.0000015
   71   0.0042957  -0.0024036  -0.0000000  -0.0150892  -0.0200206  -0.0000022
   72   0.0000005   0.0000000   0.0033573  -0.0000011  -0.0000020   0.0030128
   73  -0.0004855  -0.0003442   0.0000000  -0.0049743  -0.0025267  -0.0000001
   74  -0.0007004   0.0002005   0.0000000  -0.0008732   0.0015416  -0.0000009
   75   0.0000001   0.0000002  -0.0001228  -0.0000007  -0.0000002   0.0095881
   76  -0.0018656  -0.0026225   0.0000001   0.0005730  -0.0006710  -0.0000000
   77  -0.0042957  -0.0024036   0.0000000   0.0014751  -0.0007100   0.0000001
   78   0.0000005  -0.0000000   0.0033573  -0.0000002   0.0000001   0.0003363
           31          32          33          34          35          36
    1  -0.0090618   0.0066682  -0.0000009  -0.0001633   0.0000403  -0.0000003
    2   0.0046846  -0.0039256   0.0000002   0.0001536  -0.0000543   0.0000002
    3   0.0000002  -0.0000001   0.0000867  -0.0000001   0.0000000   0.0001735
    4   0.0046966  -0.0031887   0.0000016   0.0000799   0.0002870  -0.0000001
    5  -0.0032068  -0.0054709   0.0000001  -0.0017665  -0.0000533  -0.0000003
    6  -0.0000009  -0.0000006   0.0062971  -0.0000003   0.0000002   0.0003765
    7   0.0090899  -0.0063186   0.0000009  -0.0004118  -0.0001387  -0.0000001
    8  -0.0058846   0.0039415  -0.0000009   0.0001236   0.0000389  -0.0000001
    9  -0.0000004   0.0000006   0.0000549   0.0000000   0.0000000  -0.0001249
   10  -0.0102379   0.0054762  -0.0000008  -0.0000836   0.0001115  -0.0000001
   11   0.0054753  -0.0030498   0.0000007  -0.0001116  -0.0000477  -0.0000001
   12   0.0000008  -0.0000007  -0.0005938   0.0000000  -0.0000000   0.0000154
   13  -0.0000836  -0.0001116  -0.0000000  -0.0000673  -0.0000081  -0.0000000
   14   0.0001115  -0.0000477   0.0000000  -0.0000081  -0.0000106   0.0000000
   15   0.0000001   0.0000001   0.0000154   0.0000000  -0.0000000  -0.0001327
   16  -0.0000508   0.0004611  -0.0000000  -0.0000331  -0.0000294  -0.0000000
   17  -0.0126942   0.0064053  -0.0000011  -0.0001004   0.0001239   0.0000000
   18  -0.0000002   0.0000001   0.0001394  -0.0000000  -0.0000000   0.0000210
   19  -0.0000204  -0.0000021  -0.0000000  -0.0000038  -0.0000137   0.0000000
   20  -0.0001798   0.0001501   0.0000000   0.0000060   0.0000042  -0.0000000
   21   0.0000000  -0.0000000   0.0000149   0.0000000   0.0000000  -0.0000039
   22  -0.0436193   0.0443458  -0.0000014   0.0014255   0.0016395   0.0000007
   23   0.0225947  -0.0028489   0.0000009  -0.0020229   0.0007693   0.0000002
   24  -0.0000060   0.0000046   0.0043828  -0.0000001  -0.0000007  -0.0039745
   25  -0.0277904  -0.0285223  -0.0000032  -0.0053358   0.0006332  -0.0000016
   26  -0.0513634   0.0248392  -0.0000062   0.0020870   0.0012915   0.0000002
   27  -0.0000013  -0.0000020   0.0047121  -0.0000003   0.0000010   0.0059568
   28  -0.3282594  -0.0321564  -0.0000259  -0.0125654   0.0007886  -0.0000045
   29   0.0069206  -0.1170261   0.0000036  -0.0291208   0.0025120  -0.0000041
   30  -0.0000244  -0.0000038  -0.0624798   0.0000010   0.0000003   0.0035738
   31   0.6894653   0.0137627   0.0000407  -0.1299697  -0.1197600   0.0000154
   32   0.0137627   0.7383466  -0.0000553  -0.1197997  -0.2652845   0.0000352
   33   0.0000407  -0.0000553   0.1276616   0.0000122   0.0000275  -0.0350386
   34  -0.1299697  -0.1197997   0.0000122   0.1350047   0.1295175  -0.0000123
   35  -0.1197600  -0.2652845   0.0000275   0.1295175   0.2821759  -0.0000295
   36   0.0000154   0.0000352  -0.0350386  -0.0000123  -0.0000295   0.0239276
   37  -0.1850885   0.1297326  -0.0000193   0.0120942  -0.0163476   0.0000020
   38   0.0651009  -0.2954974   0.0000225   0.0153866  -0.0195608  -0.0000029
   39  -0.0000215   0.0000248  -0.0589492  -0.0000006   0.0000007   0.0031304
   40  -0.0120748  -0.0021611  -0.0000029   0.0009411   0.0002563   0.0000014
   41   0.0293253   0.0046016   0.0000058  -0.0003884   0.0009873  -0.0000001
   42   0.0000007  -0.0000023   0.0029846   0.0000001  -0.0000006  -0.0039404
   43   0.0201713  -0.0055964   0.0000017   0.0000668  -0.0004380  -0.0000003
   44   0.0085212  -0.0094436  -0.0000000   0.0004174   0.0000858  -0.0000002
   45  -0.0000003  -0.0000007   0.0041182   0.0000000  -0.0000000  -0.0001108
   46  -0.0147371   0.0062488  -0.0000016   0.0001103   0.0001674   0.0000002
   47  -0.0068299   0.0017977  -0.0000005  -0.0001561   0.0001999   0.0000000
   48   0.0000007  -0.0000004  -0.0003427   0.0000000  -0.0000001   0.0001284
   49   0.0129104  -0.0062883   0.0000010   0.0001322  -0.0001335  -0.0000001
   50   0.0062869  -0.0021545   0.0000007   0.0001823  -0.0000559  -0.0000001
   51  -0.0000010   0.0000007  -0.0005586   0.0000000   0.0000000  -0.0000399
   52   0.0001322  -0.0001823  -0.0000000  -0.0000456  -0.0000086  -0.0000000
   53   0.0001335  -0.0000559   0.0000000   0.0000086   0.0000159  -0.0000000
   54   0.0000001  -0.0000001  -0.0000399   0.0000000  -0.0000000   0.0000387
   55   0.0074915  -0.0074981   0.0000004   0.0002973  -0.0001091   0.0000006
   56   0.0061704  -0.0049471   0.0000007   0.0000265   0.0000205   0.0000002
   57   0.0000009  -0.0000005  -0.0006967   0.0000001  -0.0000002  -0.0011113
   58  -0.0430675   0.0293750  -0.0000032  -0.0008437   0.0006115  -0.0000012
   59   0.0132662  -0.0070252   0.0000011   0.0005073   0.0003066  -0.0000001
   60  -0.0000046   0.0000033  -0.0046082  -0.0000002   0.0000000  -0.0004338
   61   0.0596149  -0.0239300   0.0000008  -0.0011033   0.0042983  -0.0000002
   62   0.0239308  -0.0619819   0.0000015   0.0030506  -0.0027821   0.0000013
   63   0.0000008  -0.0000015   0.0080829  -0.0000001   0.0000015   0.0066256
   64  -0.0011033  -0.0030506  -0.0000001   0.0003844  -0.0008095   0.0000003
   65  -0.0042983  -0.0027821  -0.0000015   0.0008095  -0.0010796   0.0000002
   66  -0.0000002  -0.0000013   0.0066256   0.0000003  -0.0000002   0.0002873
   67  -0.0000694   0.0001328  -0.0000000   0.0000037  -0.0000283   0.0000000
   68   0.0000519  -0.0000248   0.0000000  -0.0000215  -0.0000137   0.0000000
   69  -0.0000002   0.0000001   0.0001809  -0.0000000   0.0000000   0.0000951
   70   0.0013320   0.0010524  -0.0000002   0.0001357  -0.0005056   0.0000002
   71  -0.0020479   0.0013273   0.0000002   0.0012814   0.0003728  -0.0000001
   72   0.0000002   0.0000002  -0.0022292   0.0000002   0.0000001   0.0002900
   73   0.0001240   0.0016373   0.0000001  -0.0000334  -0.0000535   0.0000000
   74  -0.0000048  -0.0000282  -0.0000000   0.0000187   0.0000119  -0.0000000
   75   0.0000004  -0.0000004   0.0002305  -0.0000000   0.0000001   0.0002307
   76   0.0002063  -0.0000860   0.0000001  -0.0000162   0.0000325  -0.0000000
   77  -0.0000665   0.0001833  -0.0000000  -0.0000805   0.0000261  -0.0000000
   78  -0.0000000  -0.0000000  -0.0000510   0.0000000   0.0000000   0.0000402
           37          38          39          40          41          42
    1  -0.0014977  -0.0147392   0.0000003  -0.0000911  -0.0003382  -0.0000000
    2  -0.0007423   0.0071721  -0.0000003  -0.0003286  -0.0003858  -0.0000002
    3   0.0000000  -0.0000000   0.0003716   0.0000002   0.0000000  -0.0005019
    4  -0.0005621   0.0000003  -0.0000004  -0.0000004   0.0000000  -0.0000004
    5   0.0000002  -0.0023096  -0.0000000  -0.0000000   0.0002085  -0.0000000
    6   0.0000003   0.0000000  -0.0008744   0.0000003   0.0000000  -0.0009874
    7   0.0006488   0.0126714   0.0000001   0.0000235   0.0003220   0.0000001
    8  -0.0000047  -0.0068276   0.0000003  -0.0000516  -0.0001623   0.0000001
    9  -0.0000002  -0.0000005  -0.0002121  -0.0000000   0.0000000   0.0001953
   10  -0.0000500  -0.0126943   0.0000002  -0.0000204  -0.0001798  -0.0000000
   11   0.0004597   0.0064059  -0.0000001  -0.0000021   0.0001501   0.0000000
   12   0.0000000   0.0000011   0.0001394   0.0000000  -0.0000000   0.0000149
   13  -0.0000331  -0.0001005   0.0000000  -0.0000038   0.0000060  -0.0000000
   14  -0.0000294   0.0001239   0.0000000  -0.0000137   0.0000042  -0.0000000
   15   0.0000000  -0.0000000   0.0000210  -0.0000000   0.0000000  -0.0000039
   16  -0.0005836  -0.0000001  -0.0000001   0.0000161   0.0000000   0.0000000
   17   0.0000004  -0.0139292   0.0000000   0.0000000  -0.0002164  -0.0000000
   18   0.0000001   0.0000000   0.0000562  -0.0000000  -0.0000000  -0.0000014
   19   0.0000161  -0.0000000   0.0000000  -0.0000190   0.0000000  -0.0000000
   20   0.0000000  -0.0002164  -0.0000000  -0.0000000   0.0000050   0.0000000
   21  -0.0000000  -0.0000000  -0.0000014   0.0000000   0.0000000   0.0000131
   22  -0.0035092  -0.0182466  -0.0000019  -0.0006146   0.0010555  -0.0000003
   23  -0.0036337   0.0126089  -0.0000005  -0.0005583   0.0008217  -0.0000003
   24  -0.0000011  -0.0000017   0.0067168  -0.0000002  -0.0000001   0.0004129
   25   0.0010366  -0.0000000   0.0000010   0.0006290   0.0000000   0.0000010
   26   0.0000006  -0.0447680   0.0000000   0.0000000  -0.0011222  -0.0000000
   27  -0.0000011  -0.0000000  -0.0046191   0.0000002   0.0000000  -0.0002439
   28  -0.0266570   0.0743259  -0.0000018   0.0009338   0.0018249  -0.0000007
   29   0.0321764   0.0124098   0.0000054   0.0029778  -0.0049673   0.0000007
   30  -0.0000027   0.0000104   0.0065614  -0.0000022   0.0000002   0.0070417
   31  -0.1850885   0.0651009  -0.0000215  -0.0120748   0.0293253   0.0000007
   32   0.1297326  -0.2954974   0.0000248  -0.0021611   0.0046016  -0.0000023
   33  -0.0000193   0.0000225  -0.0589492  -0.0000029   0.0000058   0.0029846
   34   0.0120942   0.0153866  -0.0000006   0.0009411  -0.0003884   0.0000001
   35  -0.0163476  -0.0195608   0.0000007   0.0002563   0.0009873  -0.0000006
   36   0.0000020  -0.0000029   0.0031304   0.0000014  -0.0000001  -0.0039404
   37   0.7476623   0.0000003   0.0001295  -0.3384498   0.0000000  -0.0000868
   38   0.0000003   0.6878418  -0.0000000  -0.0000000  -0.0604470   0.0000000
   39   0.0001295  -0.0000000   0.1285140  -0.0000795  -0.0000000  -0.0366485
   40  -0.3384498  -0.0000000  -0.0000795   0.3598027   0.0000000   0.0000865
   41   0.0000000  -0.0604470  -0.0000000   0.0000000   0.0595206   0.0000000
   42  -0.0000868   0.0000000  -0.0366485   0.0000865   0.0000000   0.0253558
   43  -0.0014970   0.0147396   0.0000003  -0.0000911   0.0003382  -0.0000000
   44   0.0007420   0.0071712   0.0000003   0.0003286  -0.0003858   0.0000002
   45   0.0000000   0.0000000   0.0003716   0.0000002  -0.0000000  -0.0005019
   46   0.0006491  -0.0126709   0.0000001   0.0000235  -0.0003220   0.0000001
   47   0.0000046  -0.0068273  -0.0000003   0.0000516  -0.0001624  -0.0000001
   48  -0.0000002   0.0000005  -0.0002121  -0.0000000  -0.0000000   0.0001953
   49  -0.0000508   0.0126939   0.0000002  -0.0000204   0.0001798  -0.0000000
   50  -0.0004611   0.0064051   0.0000001   0.0000021   0.0001501  -0.0000000
   51   0.0000000  -0.0000011   0.0001394   0.0000000   0.0000000   0.0000149
   52  -0.0000331   0.0001004   0.0000000  -0.0000038  -0.0000060  -0.0000000
   53   0.0000294   0.0001239  -0.0000000   0.0000137   0.0000042   0.0000000
   54   0.0000000   0.0000000   0.0000210  -0.0000000  -0.0000000  -0.0000039
   55  -0.0035087   0.0182465  -0.0000019  -0.0006146  -0.0010555  -0.0000003
   56   0.0036336   0.0126081   0.0000005   0.0005583   0.0008217   0.0000003
   57  -0.0000011   0.0000017   0.0067168  -0.0000002   0.0000001   0.0004129
   58  -0.0266585  -0.0743258  -0.0000018   0.0009337  -0.0018249  -0.0000007
   59  -0.0321760   0.0124094  -0.0000054  -0.0029778  -0.0049673  -0.0000007
   60  -0.0000027  -0.0000104   0.0065614  -0.0000022  -0.0000002   0.0070417
   61  -0.1850888  -0.0651012  -0.0000215  -0.0120748  -0.0293253   0.0000007
   62  -0.1297333  -0.2954976  -0.0000248   0.0021612   0.0046016   0.0000023
   63  -0.0000193  -0.0000225  -0.0589492  -0.0000029  -0.0000058   0.0029846
   64   0.0120942  -0.0153866  -0.0000006   0.0009411   0.0003884   0.0000001
   65   0.0163477  -0.0195608  -0.0000007  -0.0002563   0.0009873   0.0000006
   66   0.0000020   0.0000029   0.0031304   0.0000014   0.0000001  -0.0039404
   67  -0.0005449   0.0000007  -0.0000002  -0.0000947  -0.0001509  -0.0000000
   68  -0.0000708   0.0000978  -0.0000001  -0.0000025  -0.0000012  -0.0000000
   69   0.0000002  -0.0000003  -0.0008503   0.0000000  -0.0000000  -0.0000213
   70   0.0000790  -0.0003714   0.0000001   0.0000116  -0.0000171   0.0000000
   71   0.0003527  -0.0000164  -0.0000001   0.0000441  -0.0000225   0.0000000
   72   0.0000001  -0.0000000  -0.0001424  -0.0000000   0.0000000   0.0000744
   73  -0.0005449  -0.0000007  -0.0000002  -0.0000947   0.0001509  -0.0000000
   74   0.0000709   0.0000978   0.0000001   0.0000025  -0.0000012   0.0000000
   75   0.0000002   0.0000003  -0.0008503   0.0000000   0.0000000  -0.0000213
   76   0.0000790   0.0003713   0.0000001   0.0000116   0.0000171   0.0000000
   77  -0.0003527  -0.0000164   0.0000001  -0.0000441  -0.0000225  -0.0000000
   78   0.0000001   0.0000000  -0.0001424  -0.0000000  -0.0000000   0.0000744
           43          44          45          46          47          48
    1   0.0018935  -0.0006799  -0.0000002  -0.0082506  -0.0019401   0.0000014
    2   0.0006780  -0.0011667   0.0000000  -0.0008843  -0.0033635  -0.0000000
    3  -0.0000002  -0.0000000   0.0002462   0.0000009  -0.0000003   0.0057883
    4   0.0356349   0.0024856  -0.0000004  -0.1624911   0.0708485   0.0000093
    5  -0.0008559  -0.0393573  -0.0000031   0.0608091  -0.2486619  -0.0000074
    6  -0.0000025  -0.0000015   0.0033128   0.0000102  -0.0000087  -0.0625192
    7  -0.0082514   0.0008848   0.0000009   0.0554221  -0.0079042  -0.0000051
    8   0.0019401  -0.0033626   0.0000003   0.0079035  -0.0403552  -0.0000013
    9   0.0000014   0.0000000   0.0057883  -0.0000051   0.0000013   0.0023954
   10   0.0074917   0.0061714  -0.0000009  -0.0430694   0.0132640   0.0000046
   11  -0.0074992  -0.0049467   0.0000005   0.0293763  -0.0070240  -0.0000033
   12  -0.0000004  -0.0000007  -0.0006968   0.0000032  -0.0000011  -0.0046082
   13   0.0002973   0.0000265  -0.0000001  -0.0008437   0.0005073   0.0000002
   14  -0.0001091   0.0000205   0.0000002   0.0006115   0.0003066  -0.0000000
   15  -0.0000006  -0.0000002  -0.0011113   0.0000012   0.0000001  -0.0004338
   16  -0.0035098   0.0036332   0.0000011  -0.0266580  -0.0321755   0.0000027
   17   0.0182457   0.0126087  -0.0000017  -0.0743253   0.0124097   0.0000104
   18   0.0000019  -0.0000005   0.0067168   0.0000018   0.0000054   0.0065614
   19  -0.0006146   0.0005583   0.0000002   0.0009338  -0.0029778   0.0000022
   20  -0.0010555   0.0008217  -0.0000001  -0.0018249  -0.0049673   0.0000002
   21   0.0000003  -0.0000003   0.0004129   0.0000007   0.0000007   0.0070417
   22  -0.4702156   0.0213355   0.0000020  -0.0444752  -0.0438625  -0.0000008
   23  -0.0213367  -0.1243745  -0.0000068  -0.0236296   0.0172855   0.0000015
   24  -0.0000020  -0.0000068  -0.0528895  -0.0000020   0.0000017   0.0048867
   25  -0.0222868  -0.0120899  -0.0000009  -0.0247849   0.0403274   0.0000028
   26  -0.0063391  -0.0017055  -0.0000005   0.0296535   0.0073694  -0.0000014
   27  -0.0000006  -0.0000014  -0.0014342  -0.0000004   0.0000007  -0.0019086
   28  -0.0444764   0.0236292   0.0000020   0.0170693   0.0075283  -0.0000008
   29   0.0438623   0.0172860   0.0000017  -0.0075300  -0.0241027  -0.0000003
   30   0.0000008   0.0000015   0.0048867   0.0000008  -0.0000003  -0.0044597
   31   0.0201713   0.0085212  -0.0000003  -0.0147371  -0.0068299   0.0000007
   32  -0.0055964  -0.0094436  -0.0000007   0.0062488   0.0017977  -0.0000004
   33   0.0000017  -0.0000000   0.0041182  -0.0000016  -0.0000005  -0.0003427
   34   0.0000668   0.0004174   0.0000000   0.0001103  -0.0001561   0.0000000
   35  -0.0004380   0.0000858  -0.0000000   0.0001674   0.0001999  -0.0000001
   36  -0.0000003  -0.0000002  -0.0001108   0.0000002   0.0000000   0.0001284
   37  -0.0014970   0.0007420   0.0000000   0.0006491   0.0000046  -0.0000002
   38   0.0147396   0.0071712   0.0000000  -0.0126709  -0.0068273   0.0000005
   39   0.0000003   0.0000003   0.0003716   0.0000001  -0.0000003  -0.0002121
   40  -0.0000911   0.0003286   0.0000002   0.0000235   0.0000516  -0.0000000
   41   0.0003382  -0.0003858  -0.0000000  -0.0003220  -0.0001624  -0.0000000
   42  -0.0000000   0.0000002  -0.0005019   0.0000001  -0.0000001   0.0001953
   43   0.8042806  -0.0568674  -0.0000125  -0.1319913  -0.0455163  -0.0000009
   44  -0.0568674   0.6498742   0.0000374  -0.0673954  -0.2318303  -0.0000073
   45  -0.0000125   0.0000374   0.1273312  -0.0000063  -0.0000103  -0.0641618
   46  -0.1319913  -0.0673954  -0.0000063   0.7155978   0.0047300  -0.0000367
   47  -0.0455163  -0.2318303  -0.0000103   0.0047300   0.6479649   0.0000150
   48  -0.0000009  -0.0000073  -0.0641618  -0.0000367   0.0000150   0.1525324
   49  -0.0436183  -0.0225942   0.0000060  -0.3282557  -0.0069222   0.0000244
   50  -0.0443455  -0.0028490   0.0000046   0.0321566  -0.1170260  -0.0000038
   51   0.0000014   0.0000009   0.0043827   0.0000259   0.0000036  -0.0624798
   52   0.0014255   0.0020229   0.0000001  -0.0125654   0.0291208  -0.0000010
   53  -0.0016395   0.0007693  -0.0000007  -0.0007886   0.0025121   0.0000003
   54  -0.0000007   0.0000002  -0.0039745   0.0000045  -0.0000041   0.0035738
   55  -0.0007086  -0.0003339   0.0000002   0.0069385  -0.0044874  -0.0000012
   56  -0.0003309   0.0001386   0.0000001   0.0045896  -0.0026193  -0.0000009
   57  -0.0000002  -0.0000001  -0.0003680   0.0000002   0.0000002  -0.0008194
   58   0.0069399   0.0045900  -0.0000002  -0.0137252  -0.0078949   0.0000002
   59  -0.0044881  -0.0026181  -0.0000002  -0.0078950   0.0123371   0.0000020
   60   0.0000012   0.0000009  -0.0008194  -0.0000002  -0.0000020   0.0069133
   61  -0.0090616  -0.0046833   0.0000002   0.0090888   0.0058852  -0.0000004
   62  -0.0066680  -0.0039249   0.0000001   0.0063199   0.0039402  -0.0000006
   63  -0.0000009  -0.0000002   0.0000867   0.0000009   0.0000009   0.0000549
   64  -0.0001633  -0.0001536  -0.0000001  -0.0004118  -0.0001236   0.0000000
   65  -0.0000403  -0.0000543  -0.0000000   0.0001387   0.0000389  -0.0000000
   66  -0.0000003  -0.0000002   0.0001735  -0.0000001   0.0000001  -0.0001249
   67  -0.0002021   0.0001536   0.0000000   0.0005730   0.0006709   0.0000000
   68   0.0004564  -0.0002269   0.0000000  -0.0014751  -0.0007100   0.0000001
   69  -0.0000000   0.0000000  -0.0000918   0.0000002   0.0000001   0.0003363
   70  -0.0127547  -0.0304037  -0.0000028  -0.0049743   0.0025267   0.0000001
   71   0.0017833   0.0037696  -0.0000001   0.0008732   0.0015416  -0.0000009
   72   0.0000005  -0.0000006   0.0046375   0.0000007  -0.0000002   0.0095881
   73  -0.1287265   0.1196931   0.0000117   0.0106436  -0.0146802  -0.0000015
   74   0.1210468  -0.2663387  -0.0000209   0.0150893  -0.0200206  -0.0000022
   75   0.0000128  -0.0000215  -0.0364194   0.0000011  -0.0000020   0.0030128
   76  -0.0000334   0.0000085  -0.0000000   0.0001861   0.0000044  -0.0000000
   77   0.0000376   0.0000400   0.0000000   0.0000754  -0.0000324  -0.0000001
   78   0.0000000  -0.0000000   0.0001144  -0.0000001   0.0000001  -0.0009387
           49          50          51          52          53          54
    1   0.0074903   0.0074984  -0.0000004   0.0002974   0.0001091  -0.0000006
    2  -0.0061716  -0.0049467   0.0000007  -0.0000265   0.0000206   0.0000002
    3  -0.0000009  -0.0000005  -0.0006968  -0.0000001  -0.0000002  -0.0011113
    4  -0.0277890   0.0285216   0.0000032  -0.0053358  -0.0006332   0.0000016
    5   0.0513632   0.0248393  -0.0000062  -0.0020870   0.0012915   0.0000002
    6   0.0000013  -0.0000020   0.0047120   0.0000003   0.0000010   0.0059568
    7  -0.0430681  -0.0293745   0.0000032  -0.0008437  -0.0006115   0.0000012
    8  -0.0132647  -0.0070258   0.0000011  -0.0005073   0.0003066  -0.0000001
    9   0.0000046   0.0000033  -0.0046082   0.0000002   0.0000000  -0.0004338
   10   0.0596148   0.0239299  -0.0000008  -0.0011033  -0.0042983   0.0000002
   11  -0.0239306  -0.0619820   0.0000015  -0.0030506  -0.0027821   0.0000013
   12  -0.0000008  -0.0000015   0.0080829   0.0000001   0.0000015   0.0066256
   13  -0.0011033   0.0030506   0.0000001   0.0003844   0.0008095  -0.0000003
   14   0.0042983  -0.0027821  -0.0000015  -0.0008095  -0.0010796   0.0000002
   15   0.0000002  -0.0000013   0.0066256  -0.0000003  -0.0000002   0.0002873
   16  -0.1850883  -0.1297329   0.0000193   0.0120942   0.0163477  -0.0000020
   17  -0.0651002  -0.2954964   0.0000225  -0.0153867  -0.0195608  -0.0000029
[...]
 TransDip   0.000  0.000  0.000   -0.067  0.000 -0.000    0.000  0.058 -0.000

 Mode:                55                     56                     57
 Frequency:      1494.59                1554.38                1555.83
 Force Cnst:      6.9227                 4.5357                 7.3226
 Red. Mass:       5.2599                 3.1863                 5.1344
 IR Active:          YES                    NO                     YES
 IR Intens:        5.411                  0.000                  2.638
 Raman Active:       YES                    YES                    YES
               X      Y      Z        X      Y      Z        X      Y      Z
 C         -0.059  0.165 -0.000   -0.057  0.061 -0.000    0.172 -0.031  0.000
 C          0.113 -0.000 -0.000    0.000  0.051  0.000    0.000 -0.139 -0.000
 C         -0.064 -0.230  0.000    0.121 -0.054 -0.000    0.061  0.112 -0.000
 C          0.027  0.045 -0.000   -0.073 -0.052  0.000   -0.022 -0.105 -0.000
 H          0.218 -0.064 -0.000    0.114 -0.179 -0.000   -0.068 -0.093  0.000
 C         -0.009  0.000  0.000    0.000  0.177  0.000    0.000  0.227 -0.000
 H         -0.003 -0.000  0.000    0.000 -0.462 -0.000    0.000 -0.509 -0.000
 C         -0.059  0.165  0.000    0.057 -0.061 -0.000    0.172 -0.031 -0.000
 C          0.113 -0.000  0.000   -0.000 -0.052 -0.000   -0.000 -0.139 -0.000
 C         -0.064 -0.230 -0.000   -0.121  0.054 -0.000    0.061  0.112  0.000
 C          0.027  0.045  0.000    0.073  0.052  0.000   -0.022 -0.105  0.000
 H          0.218 -0.064  0.000   -0.115  0.179 -0.000   -0.068 -0.093 -0.000
 C         -0.009 -0.000 -0.000    0.000 -0.177  0.000    0.000  0.227 -0.000
 H         -0.003  0.000 -0.000    0.000  0.461 -0.000    0.000 -0.509  0.000
 C         -0.059 -0.165 -0.000    0.057  0.061  0.000   -0.172 -0.031 -0.000
 C         -0.064  0.230  0.000   -0.121 -0.054  0.000   -0.061  0.112  0.000
 C          0.027 -0.045 -0.000    0.073 -0.052 -0.000    0.022 -0.105  0.000
 H          0.218  0.064 -0.000   -0.114 -0.179  0.000    0.068 -0.093 -0.000
 C         -0.059 -0.165  0.000   -0.057 -0.061  0.000   -0.172 -0.031  0.000
 C         -0.064  0.230 -0.000    0.121  0.054  0.000   -0.061  0.112 -0.000
 C          0.027 -0.045  0.000   -0.073  0.052 -0.000    0.022 -0.105 -0.000
 H          0.218  0.064  0.000    0.115  0.179  0.000    0.068 -0.093  0.000
 H          0.315 -0.051 -0.000    0.202 -0.088  0.000   -0.036  0.109 -0.000
 H          0.315 -0.051  0.000   -0.202  0.088  0.000   -0.036  0.109  0.000
 H          0.315  0.051 -0.000   -0.202 -0.088 -0.000    0.036  0.109  0.000
 H          0.315  0.051  0.000    0.202  0.088 -0.000    0.036  0.109 -0.000
 TransDip   0.075  0.000  0.000   -0.000 -0.000 -0.000    0.000 -0.052 -0.000

 Mode:                58                     59                     60
 Frequency:      1631.09                1658.58                1666.36
 Force Cnst:      7.3769                12.8250                 9.7561
 Red. Mass:       4.7062                 7.9129                 5.9633
 IR Active:          YES                    NO                     YES
 IR Intens:        0.000                  0.000                  9.460
 Raman Active:       YES                    YES                    YES
               X      Y      Z        X      Y      Z        X      Y      Z
 C         -0.143  0.005  0.000   -0.020  0.060 -0.000    0.045 -0.029  0.000
 C          0.019  0.000 -0.000    0.000  0.300 -0.000    0.088  0.000 -0.000
 C         -0.104  0.029  0.000    0.013 -0.207  0.000   -0.211  0.018  0.000
 C          0.189 -0.095 -0.000   -0.097  0.157  0.000    0.218 -0.085 -0.000
 H         -0.316  0.198  0.000    0.231 -0.028 -0.000   -0.261  0.195  0.000
 C         -0.118 -0.000  0.000   -0.000 -0.249  0.000   -0.115 -0.000  0.000
 H         -0.137  0.000 -0.000   -0.000  0.268 -0.000   -0.131  0.000 -0.000
 C          0.143 -0.005  0.000    0.020 -0.060 -0.000    0.045 -0.029 -0.000
 C         -0.019 -0.000 -0.000    0.000 -0.300  0.000    0.088  0.000  0.000
 C          0.104 -0.029  0.000   -0.013  0.207  0.000   -0.211  0.018 -0.000
 C         -0.189  0.095 -0.000    0.097 -0.157  0.000    0.218 -0.085  0.000
 H          0.316 -0.198  0.000   -0.231  0.028 -0.000   -0.261  0.195 -0.000
 C          0.118  0.000  0.000   -0.000  0.249 -0.000   -0.115 -0.000 -0.000
 H          0.137 -0.000 -0.000   -0.000 -0.268  0.000   -0.131  0.000  0.000
 C         -0.143 -0.005  0.000    0.020  0.060  0.000    0.045  0.029  0.000
 C         -0.104 -0.029  0.000   -0.013 -0.207 -0.000   -0.211 -0.018  0.000
 C          0.189  0.095 -0.000    0.097  0.157 -0.000    0.218  0.085 -0.000
 H         -0.316 -0.198  0.000   -0.231 -0.028  0.000   -0.261 -0.195  0.000
 C          0.143  0.005  0.000   -0.020 -0.060  0.000    0.045  0.029 -0.000
 C          0.104  0.029  0.000    0.013  0.207 -0.000   -0.211 -0.018 -0.000
 C         -0.189 -0.095 -0.000   -0.097 -0.157 -0.000    0.218  0.085  0.000
 H          0.316  0.198  0.000    0.231  0.028  0.000   -0.261 -0.195 -0.000
 H          0.046 -0.124  0.000    0.047  0.020 -0.000   -0.133  0.071 -0.000
 H         -0.046  0.124  0.000   -0.047 -0.020 -0.000   -0.133  0.071  0.000
 H          0.046  0.124  0.000   -0.047  0.020  0.000   -0.133 -0.071 -0.000
 H         -0.046 -0.124  0.000    0.047 -0.020  0.000   -0.133 -0.071  0.000
 TransDip  -0.000  0.000  0.000   -0.000  0.000 -0.000   -0.099  0.000  0.000

 Mode:                61                     62                     63
 Frequency:      1688.15                1707.88                3174.30
 Force Cnst:     10.7683                12.3363                 6.4466
 Red. Mass:       6.4132                 7.1783                 1.0859
 IR Active:          YES                    YES                    YES
 IR Intens:        0.848                  0.000                  2.300
 Raman Active:       YES                    YES                    YES
               X      Y      Z        X      Y      Z        X      Y      Z
 C         -0.284  0.035  0.000   -0.277  0.042 -0.000   -0.017 -0.029  0.000
 C         -0.000 -0.085  0.000   -0.211  0.000  0.000    0.000 -0.000 -0.000
 C          0.079  0.053 -0.000    0.177  0.006 -0.000   -0.001  0.001  0.000
 C          0.035 -0.103 -0.000   -0.086  0.018  0.000    0.011  0.019  0.000
 H         -0.096 -0.036  0.000    0.057 -0.067  0.000   -0.130 -0.226 -0.000
 C         -0.000  0.182  0.000    0.034 -0.000 -0.000   -0.017 -0.000  0.000
 H         -0.000 -0.214  0.000    0.035  0.000  0.000    0.210  0.000 -0.000
 C         -0.284  0.035 -0.000    0.277 -0.042 -0.000   -0.017 -0.029 -0.000
 C          0.000 -0.085  0.000    0.211  0.000  0.000    0.000 -0.000  0.000
 C          0.079  0.053  0.000   -0.177 -0.006 -0.000   -0.001  0.001 -0.000
 C          0.035 -0.103  0.000    0.086 -0.018  0.000    0.011  0.019 -0.000
 H         -0.096 -0.036 -0.000   -0.057  0.067  0.000   -0.130 -0.226  0.000
 C         -0.000  0.182 -0.000   -0.034 -0.000 -0.000   -0.017  0.000 -0.000
 H         -0.000 -0.214  0.000   -0.035  0.000  0.000    0.210 -0.000  0.000
 C          0.284  0.035 -0.000   -0.277 -0.042 -0.000   -0.017  0.029  0.000
 C         -0.079  0.053  0.000    0.177 -0.006 -0.000   -0.001 -0.001  0.000
 C         -0.035 -0.103  0.000   -0.086 -0.018  0.000    0.011 -0.019  0.000
 H          0.096 -0.036 -0.000    0.057  0.067  0.000   -0.130  0.226 -0.000
 C          0.284  0.035  0.000    0.277  0.042 -0.000   -0.017  0.029 -0.000
 C         -0.079  0.053 -0.000   -0.177  0.006 -0.000   -0.001 -0.001 -0.000
 C         -0.035 -0.103 -0.000    0.086  0.018  0.000    0.011 -0.019 -0.000
 H          0.096 -0.036  0.000   -0.057 -0.067  0.000   -0.130  0.226  0.000
 H          0.164 -0.258  0.000    0.189 -0.256  0.000    0.201  0.343 -0.000
 H          0.164 -0.258 -0.000   -0.189  0.256  0.000    0.201  0.343  0.000
 H         -0.164 -0.258 -0.000    0.189  0.256  0.000    0.201 -0.343 -0.000
 H         -0.164 -0.258  0.000   -0.189 -0.256  0.000    0.201 -0.343  0.000
 TransDip  -0.000 -0.029  0.000    0.000  0.000  0.000   -0.049  0.000 -0.000

 Mode:                64                     65                     66
 Frequency:      3175.02                3176.58                3177.82
 Force Cnst:      6.4508                 6.4573                 6.4608
 Red. Mass:       1.0861                 1.0861                 1.0859
 IR Active:          NO                     YES                    YES
 IR Intens:        0.000                  0.000                  2.042
 Raman Active:       YES                    YES                    YES
               X      Y      Z        X      Y      Z        X      Y      Z
 C         -0.020 -0.036  0.000    0.003  0.004 -0.000    0.012  0.022 -0.000
 C         -0.000  0.000 -0.000    0.000 -0.000 -0.000   -0.000  0.000  0.000
 C         -0.001  0.000  0.000    0.001 -0.001 -0.000   -0.000  0.000  0.000
 C          0.005  0.009  0.000   -0.018 -0.030 -0.000    0.014  0.024  0.000
 H         -0.059 -0.104 -0.000    0.210  0.359  0.000   -0.165 -0.280 -0.000
 C          0.000 -0.001 -0.000    0.032  0.000 -0.000   -0.027 -0.000  0.000
 H         -0.000  0.001  0.000   -0.380 -0.000  0.000    0.325 -0.000 -0.000
 C          0.020  0.036  0.000   -0.003 -0.004 -0.000    0.012  0.022  0.000
 C         -0.000 -0.000  0.000   -0.000 -0.000 -0.000   -0.000 -0.000 -0.000
 C          0.001 -0.000  0.000   -0.001  0.001 -0.000   -0.000  0.000 -0.000
 C         -0.005 -0.009  0.000    0.018  0.030 -0.000    0.014  0.024 -0.000
 H          0.059  0.104 -0.000   -0.210 -0.359  0.000   -0.165 -0.280  0.000
 C          0.000  0.001  0.000   -0.032 -0.000 -0.000   -0.027  0.000 -0.000
 H         -0.000 -0.001 -0.000    0.380 -0.000  0.000    0.325 -0.000  0.000
 C          0.020 -0.036 -0.000    0.003 -0.004 -0.000    0.012 -0.022 -0.000
 C          0.001  0.000 -0.000    0.001  0.001 -0.000   -0.000 -0.000  0.000
 C         -0.005  0.009 -0.000   -0.018  0.030 -0.000    0.014 -0.024  0.000
 H          0.059 -0.104  0.000    0.210 -0.359  0.000   -0.165  0.280 -0.000
 C         -0.020  0.036 -0.000   -0.003  0.004 -0.000    0.012 -0.022  0.000
 C         -0.001 -0.000 -0.000   -0.001 -0.001 -0.000   -0.000 -0.000 -0.000
 C          0.005 -0.009 -0.000    0.018 -0.030 -0.000    0.014 -0.024 -0.000
 H         -0.059  0.104  0.000   -0.210  0.359  0.000   -0.165  0.280  0.000
 H          0.244  0.418 -0.000   -0.027 -0.044  0.000   -0.149 -0.259  0.000
 H         -0.244 -0.418 -0.000    0.027  0.044  0.000   -0.149 -0.259 -0.000
 H         -0.244  0.418  0.000   -0.027  0.044  0.000   -0.149  0.259  0.000
 H          0.244 -0.418  0.000    0.027 -0.044  0.000   -0.149  0.259 -0.000
 TransDip   0.000  0.000  0.000    0.000 -0.000  0.000    0.046 -0.000  0.000

 Mode:                67                     68                     69
 Frequency:      3183.49                3184.45                3195.30
 Force Cnst:      6.5132                 6.5138                 6.5962
 Red. Mass:       1.0908                 1.0902                 1.0965
 IR Active:          YES                    NO                     YES
 IR Intens:       25.594                  0.000                 81.640
 Raman Active:       YES                    YES                    YES
               X      Y      Z        X      Y      Z        X      Y      Z
 C          0.005  0.007 -0.000   -0.005 -0.009  0.000   -0.025 -0.037  0.000
 C          0.000  0.000  0.000    0.000  0.001 -0.000    0.000  0.001 -0.000
 C          0.002 -0.001 -0.000    0.001 -0.000 -0.000   -0.001  0.001 -0.000
 C         -0.022 -0.037 -0.000   -0.021 -0.036 -0.000   -0.004 -0.007 -0.000
 H          0.247  0.423  0.000    0.244  0.417  0.000    0.047  0.077  0.000
 C          0.000  0.003 -0.000    0.000  0.002 -0.000    0.000  0.000 -0.000
 H         -0.000 -0.003  0.000   -0.000 -0.003  0.000   -0.001 -0.001  0.000
 C          0.005  0.007  0.000    0.005  0.009  0.000   -0.025 -0.036 -0.000
 C          0.000  0.000 -0.000   -0.000 -0.001 -0.000   -0.000  0.001 -0.000
 C          0.002 -0.001  0.000   -0.001  0.000 -0.000   -0.001  0.001  0.000
 C         -0.022 -0.037  0.000    0.021  0.036 -0.000   -0.004 -0.007  0.000
 H          0.247  0.423 -0.000   -0.244 -0.417  0.000    0.047  0.077 -0.000
 C          0.000  0.003  0.000   -0.000 -0.002 -0.000   -0.000  0.000 -0.000
 H         -0.000 -0.003 -0.000    0.000  0.003  0.000    0.001 -0.001  0.000
 C         -0.005  0.007  0.000    0.005 -0.009 -0.000    0.025 -0.036 -0.000
 C         -0.002 -0.001  0.000   -0.001 -0.000  0.000    0.001  0.001  0.000
 C          0.022 -0.037  0.000    0.021 -0.036  0.000    0.004 -0.007  0.000
 H         -0.247  0.423 -0.000   -0.244  0.417 -0.000   -0.047  0.077 -0.000
 C         -0.005  0.007 -0.000   -0.005  0.009 -0.000    0.025 -0.037  0.000
 C         -0.002 -0.001 -0.000    0.001  0.000  0.000    0.001  0.001 -0.000
 C          0.022 -0.037 -0.000   -0.021  0.036  0.000    0.004 -0.007 -0.000
 H         -0.247  0.423  0.000    0.244 -0.417 -0.000   -0.047  0.077  0.000
 H         -0.046 -0.076  0.000    0.059  0.105 -0.000    0.250  0.424 -0.000
 H         -0.046 -0.076 -0.000   -0.059 -0.105 -0.000    0.247  0.420  0.000
 H          0.046 -0.076 -0.000   -0.059  0.105  0.000   -0.247  0.420  0.000
 H          0.046 -0.076  0.000    0.059 -0.105  0.000   -0.250  0.424 -0.000
 TransDip  -0.000 -0.162 -0.000   -0.000 -0.000  0.000    0.000 -0.289  0.000

 Mode:                70                     71                     72
 Frequency:      3195.31                3202.83                3203.38
 Force Cnst:      6.5968                 6.6256                 6.6266
 Red. Mass:       1.0966                 1.0962                 1.0960
 IR Active:          YES                    YES                    YES
 IR Intens:        0.002                 78.773                  0.000
 Raman Active:       YES                    YES                    YES
               X      Y      Z        X      Y      Z        X      Y      Z
 C          0.024  0.036 -0.000   -0.001 -0.002  0.000    0.005  0.007 -0.000
 C         -0.000  0.000  0.000    0.000  0.000 -0.000   -0.000 -0.000  0.000
 C          0.001 -0.001 -0.000    0.001 -0.000 -0.000   -0.001 -0.000  0.000
 C         -0.000 -0.001 -0.000   -0.011 -0.022 -0.000    0.011  0.022  0.000
 H          0.003  0.010  0.000    0.135  0.236  0.000   -0.136 -0.237 -0.000
 C         -0.014  0.000  0.000   -0.053 -0.000  0.000    0.051 -0.000 -0.000
 H          0.157 -0.000 -0.000    0.589 -0.000 -0.000   -0.572  0.000  0.000
 C         -0.025 -0.036 -0.000   -0.001 -0.002 -0.000   -0.005 -0.007 -0.000
 C          0.000  0.000  0.000    0.000 -0.000  0.000    0.000 -0.000  0.000
 C         -0.001  0.001 -0.000    0.001 -0.000  0.000    0.001  0.000  0.000
 C          0.000  0.001 -0.000   -0.011 -0.022  0.000   -0.011 -0.022  0.000
 H         -0.003 -0.009  0.000    0.135  0.236 -0.000    0.136  0.237 -0.000
 C          0.014  0.000  0.000   -0.053 -0.000 -0.000   -0.051 -0.000 -0.000
 H         -0.157 -0.000 -0.000    0.589  0.000  0.000    0.572  0.000  0.000
 C          0.025 -0.036 -0.000   -0.001  0.002  0.000    0.005 -0.007 -0.000
 C          0.001  0.001 -0.000    0.001  0.000 -0.000   -0.001  0.000  0.000
 C         -0.000  0.001 -0.000   -0.011  0.022 -0.000    0.011 -0.022  0.000
 H          0.003 -0.009  0.000    0.135 -0.236  0.000   -0.136  0.237 -0.000
 C         -0.024  0.036 -0.000   -0.001  0.002 -0.000   -0.005  0.007 -0.000
 C         -0.001 -0.001 -0.000    0.001  0.000  0.000    0.001 -0.000  0.000
 C          0.000 -0.001 -0.000   -0.011  0.022  0.000   -0.011  0.022  0.000
 H         -0.003  0.010  0.000    0.135 -0.236 -0.000    0.136 -0.237 -0.000
 H         -0.245 -0.416  0.000    0.011  0.021 -0.000   -0.049 -0.085  0.000
 H          0.248  0.420  0.000    0.011  0.021  0.000    0.049  0.085  0.000
 H         -0.248  0.420  0.000    0.011 -0.021 -0.000   -0.049  0.085  0.000
 H          0.245 -0.416  0.000    0.011 -0.021  0.000    0.049 -0.085  0.000
 TransDip   0.000 -0.002 -0.000   -0.284 -0.000  0.000   -0.000  0.000 -0.000

 STANDARD THERMODYNAMIC QUANTITIES AT   298.15 K  AND     1.00 ATM

   This Molecule has  0 Imaginary Frequencies
   Zero point vibrational energy:      130.411 kcal/mol

   Atom    1 Element C  Has Mass   12.00000
   Atom    2 Element C  Has Mass   12.00000
   Atom    3 Element C  Has Mass   12.00000
   Atom    4 Element C  Has Mass   12.00000
   Atom    5 Element H  Has Mass    1.00783
   Atom    6 Element C  Has Mass   12.00000
   Atom    7 Element H  Has Mass    1.00783
   Atom    8 Element C  Has Mass   12.00000
   Atom    9 Element C  Has Mass   12.00000
   Atom   10 Element C  Has Mass   12.00000
   Atom   11 Element C  Has Mass   12.00000
   Atom   12 Element H  Has Mass    1.00783
   Atom   13 Element C  Has Mass   12.00000
   Atom   14 Element H  Has Mass    1.00783
   Atom   15 Element C  Has Mass   12.00000
   Atom   16 Element C  Has Mass   12.00000
   Atom   17 Element C  Has Mass   12.00000
   Atom   18 Element H  Has Mass    1.00783
   Atom   19 Element C  Has Mass   12.00000
   Atom   20 Element C  Has Mass   12.00000
   Atom   21 Element C  Has Mass   12.00000
   Atom   22 Element H  Has Mass    1.00783
   Atom   23 Element H  Has Mass    1.00783
   Atom   24 Element H  Has Mass    1.00783
   Atom   25 Element H  Has Mass    1.00783
   Atom   26 Element H  Has Mass    1.00783
   Molecular Mass:   202.078300 amu
   Principal axes and moments of inertia in amu*Bohr^2:
                             1           2           3
    Eigenvalues --     1779.07640  3232.37510  5011.45149
          X               1.00000     0.00000     0.00000
          Y              -0.00000     1.00000     0.00000
          Z              -0.00000    -0.00000     1.00000
   Rotational Symmetry Number is   2
   The Molecule is an Asymmetric Top
   Translational Enthalpy:        0.889 kcal/mol
   Rotational Enthalpy:           0.889 kcal/mol
   Vibrational Enthalpy:        135.043 kcal/mol
   gas constant (RT):             0.592 kcal/mol
   Translational Entropy:        41.815  cal/mol.K
   Rotational Entropy:           30.355  cal/mol.K
   Vibrational Entropy:          25.060  cal/mol.K

   Total Enthalpy:              137.413 kcal/mol
   Total Entropy:                97.230  cal/mol.K
Archival summary:
1\1\qnode0211\FREQ\ProcedureUnspecified\6-31+G*\1610\ckw3571\WedNov1010:08:082021WedNov1010:08:082021\0\\#,FREQ,ProcedureUnspecified,6-31+G*,\\0,1\C\C,1,1.41917\C,2,1.39804,1,119.141\H,3,1.08753,2,119.25,1,-179.989,0\C,3,1.38994,2,120.665,1,0.00123541,0\H,5,1.08677,3,119.765,2,179.989,0\C,5,1.38994,3,120.47,2,-0.00265649,0\H,7,1.08753,5,120.084,3,-179.987,0\C,7,1.39804,5,120.665,3,0.00265649,0\C,1,1.43021,2,120.041,3,-179.993,0\C,10,1.41917,1,120.041,2,0,0\C,11,1.39804,10,119.141,1,179.993,0\H,12,1.08753,11,119.25,10,179.989,0\C,12,1.38994,11,120.665,10,-0.00123541,0\H,14,1.08677,12,119.765,11,-179.989,0\C,14,1.38994,12,120.47,11,0.00265649,0\H,16,1.08753,14,120.084,12,179.987,0\C,16,1.39804,14,120.665,12,-0.00265649,0\C,18,1.44265,16,122.212,14,-179.992,0\H,19,1.08728,18,118.247,16,-0.00478753,0\C,19,1.35167,18,121.312,16,179.993,0\H,21,1.08728,19,120.441,18,-179.997,0\C,2,1.44265,1,118.647,3,179.994,0\H,23,1.08728,2,118.247,1,-179.998,0\C,23,1.35167,2,121.312,1,-0.000819084,0\H,25,1.08728,23,120.441,2,-179.997,0\\\@

 Total job time:  1943.95s(wall), 1937.66s(cpu) 
 Wed Nov 10 10:08:08 2021

        *************************************************************
        *                                                           *
        *  Thank you very much for using Q-Chem.  Have a nice day.  *
        *                                                           *
        *************************************************************


remove work dirs /tmp/qchem30381.0 -- /tmp/qchem30381.-1
rm -rf /tmp/qchem30381
